<?xml version="1.0"?>
<VTKFile type="UnstructuredGrid" version="0.1" byte_order="BigEndian">
<UnstructuredGrid GhostLevel="0">
<Piece NumberOfPoints="12117" NumberOfCells="7070" ><Points>
<DataArray type="Float32" NumberOfComponents="3" format="ascii">
17.3648	98.4808	10	16.8047	95.304	10	20.5416	97.9206	10	19.9815	94.7438	10	17.3648	98.4808	0	16.8047	95.304	0	20.5416	97.9206	0	19.9815	94.7438	0	23.7184	97.3605	10	23.1583	94.1837	10	23.7184	97.3605	0	23.1583	94.1837	0	26.8952	96.8003	10	26.3351	93.6235	10	26.8952	96.8003	0	26.3351	93.6235	0	30.072	96.2402	10	29.5119	93.0634	10	30.072	96.2402	0	29.5119	93.0634	0	39.6024	94.5597	10	39.0423	91.3829	10	42.7792	93.9995	10	42.2191	90.8227	10	39.6024	94.5597	0	39.0423	91.3829	0	42.7792	93.9995	0	42.2191	90.8227	0	45.956	93.4394	10	45.3959	90.2626	10	45.956	93.4394	0	45.3959	90.2626	0	55.4864	91.7589	10	54.9263	88.5821	10	58.6632	91.1988	10	58.1031	88.022	10	55.4864	91.7589	0	54.9263	88.5821	0	58.6632	91.1988	0	58.1031	88.022	0	61.84	90.6386	10	61.2799	87.4618	10	61.84	90.6386	0	61.2799	87.4618	0	65.0168	90.0784	10	64.4566	86.9016	10	65.0168	90.0784	0	64.4566	86.9016	0	68.1936	89.5183	10	67.6335	86.3415	10	68.1936	89.5183	0	67.6335	86.3415	0	71.3704	88.9581	10	70.8102	85.7813	10	71.3704	88.9581	0	70.8102	85.7813	0	74.5472	88.398	10	73.987	85.2212	10	74.5472	88.398	0	73.987	85.2212	0	77.724	87.8378	10	77.1638	84.661	10	77.724	87.8378	0	77.1638	84.661	0	80.9008	87.2777	10	80.3406	84.1009	10	80.9008	87.2777	0	80.3406	84.1009	0	84.0776	86.7175	10	83.5174	83.5407	10	84.0776	86.7175	0	83.5174	83.5407	0	87.2544	86.1574	10	86.6942	82.9806	10	87.2544	86.1574	0	86.6942	82.9806	0	90.4312	85.5972	10	89.871	82.4204	10	90.4312	85.5972	0	89.871	82.4204	0	93.608	85.037	10	93.0478	81.8602	10	93.608	85.037	0	93.0478	81.8602	0	96.7848	84.4769	10	96.2246	81.3001	10	96.7848	84.4769	0	96.2246	81.3001	0	99.9616	83.9167	10	99.4014	80.7399	10	99.9616	83.9167	0	99.4014	80.7399	0	103.138	83.3566	10	102.578	80.1798	10	103.138	83.3566	0	102.578	80.1798	0	106.315	82.7964	10	105.755	79.6196	10	106.315	82.7964	0	105.755	79.6196	0	109.492	82.2363	10	108.932	79.0595	10	109.492	82.2363	0	108.932	79.0595	0	112.669	81.6761	10	112.109	78.4993	10	112.669	81.6761	0	112.109	78.4993	0	115.846	81.116	10	115.285	77.9392	10	115.846	81.116	0	115.285	77.9392	0	16.2445	92.1272	10	19.4213	91.567	10	16.2445	92.1272	0	19.4213	91.567	0	22.5981	91.0069	10	22.5981	91.0069	0	25.7749	90.4467	10	25.7749	90.4467	0	28.9517	89.8866	10	28.9517	89.8866	0	32.6887	92.5032	10	32.1285	89.3264	10	32.6887	92.5032	0	32.1285	89.3264	0	35.8655	91.943	10	35.3053	88.7662	10	35.8655	91.943	0	35.3053	88.7662	0	38.4821	88.2061	10	38.4821	88.2061	0	41.6589	87.6459	10	41.6589	87.6459	0	44.8357	87.0858	10	44.8357	87.0858	0	48.5727	89.7024	10	48.0125	86.5256	10	48.5727	89.7024	0	48.0125	86.5256	0	51.7495	89.1423	10	51.1893	85.9655	10	54.3661	85.4053	10	51.7495	89.1423	0	51.1893	85.9655	0	54.3661	85.4053	0	57.5429	84.8452	10	57.5429	84.8452	0	60.7197	84.285	10	60.7197	84.285	0	63.8965	83.7248	10	63.8965	83.7248	0	67.0733	83.1647	10	67.0733	83.1647	0	70.2501	82.6045	10	70.2501	82.6045	0	73.4269	82.0444	10	73.4269	82.0444	0	76.6037	81.4842	10	76.6037	81.4842	0	79.7805	80.9241	10	79.7805	80.9241	0	82.9573	80.3639	10	82.9573	80.3639	0	86.1341	79.8038	10	86.1341	79.8038	0	89.3109	79.2436	10	89.3109	79.2436	0	92.4877	78.6834	10	92.4877	78.6834	0	95.6645	78.1233	10	95.6645	78.1233	0	98.8413	77.5631	10	98.8413	77.5631	0	102.018	77.003	10	102.018	77.003	0	105.195	76.4428	10	105.195	76.4428	0	108.372	75.8827	10	108.372	75.8827	0	111.548	75.3225	10	111.548	75.3225	0	114.725	74.7624	10	114.725	74.7624	0	15.6844	88.9504	10	18.8612	88.3902	10	15.6844	88.9504	0	18.8612	88.3902	0	22.038	87.8301	10	22.038	87.8301	0	25.2147	87.2699	10	25.2147	87.2699	0	28.3915	86.7098	10	28.3915	86.7098	0	31.5683	86.1496	10	31.5683	86.1496	0	34.7451	85.5894	10	34.7451	85.5894	0	37.9219	85.0293	10	37.9219	85.0293	0	41.0987	84.4691	10	41.0987	84.4691	0	44.2755	83.909	10	44.2755	83.909	0	47.4523	83.3488	10	47.4523	83.3488	0	50.6291	82.7887	10	50.6291	82.7887	0	53.8059	82.2285	10	53.8059	82.2285	0	56.9827	81.6684	10	56.9827	81.6684	0	60.1595	81.1082	10	60.1595	81.1082	0	63.3363	80.548	10	63.3363	80.548	0	66.5131	79.9879	10	66.5131	79.9879	0	69.6899	79.4277	10	69.6899	79.4277	0	72.8667	78.8676	10	72.8667	78.8676	0	76.0435	78.3074	10	76.0435	78.3074	0	79.2203	77.7473	10	79.2203	77.7473	0	82.3971	77.1871	10	82.3971	77.1871	0	85.5739	76.627	10	85.5739	76.627	0	88.7507	76.0668	10	88.7507	76.0668	0	91.9275	75.5066	10	91.9275	75.5066	0	95.1043	74.9465	10	95.1043	74.9465	0	98.2811	74.3863	10	98.2811	74.3863	0	101.458	73.8262	10	101.458	73.8262	0	104.635	73.266	10	104.635	73.266	0	107.812	72.7059	10	107.812	72.7059	0	110.988	72.1457	10	110.988	72.1457	0	114.165	71.5856	10	114.165	71.5856	0	15.1242	85.7736	10	18.301	85.2134	10	15.1242	85.7736	0	18.301	85.2134	0	21.4778	84.6533	10	21.4778	84.6533	0	24.6546	84.0931	10	24.6546	84.0931	0	27.8314	83.533	10	27.8314	83.533	0	31.0082	82.9728	10	31.0082	82.9728	0	34.185	82.4126	10	34.185	82.4126	0	37.3618	81.8525	10	37.3618	81.8525	0	40.5386	81.2923	10	40.5386	81.2923	0	43.7154	80.7322	10	43.7154	80.7322	0	46.8922	80.172	10	46.8922	80.172	0	50.069	79.6119	10	50.069	79.6119	0	53.2458	79.0517	10	53.2458	79.0517	0	56.4226	78.4916	10	56.4226	78.4916	0	59.5994	77.9314	10	59.5994	77.9314	0	62.7762	77.3712	10	62.7762	77.3712	0	65.953	76.8111	10	65.953	76.8111	0	69.1298	76.2509	10	69.1298	76.2509	0	72.3066	75.6908	10	72.3066	75.6908	0	75.4834	75.1306	10	75.4834	75.1306	0	78.6602	74.5705	10	78.6602	74.5705	0	81.837	74.0103	10	81.837	74.0103	0	85.0138	73.4502	10	85.0138	73.4502	0	88.1906	72.89	10	88.1906	72.89	0	91.3674	72.3298	10	91.3674	72.3298	0	94.5442	71.7697	10	94.5442	71.7697	0	97.721	71.2095	10	97.721	71.2095	0	100.898	70.6494	10	100.898	70.6494	0	104.075	70.0892	10	104.075	70.0892	0	107.251	69.5291	10	107.251	69.5291	0	110.428	68.9689	10	110.428	68.9689	0	113.605	68.4088	10	113.605	68.4088	0	14.564	82.5968	10	17.7408	82.0366	10	14.564	82.5968	0	17.7408	82.0366	0	20.9176	81.4765	10	20.9176	81.4765	0	24.0944	80.9163	10	24.0944	80.9163	0	27.2712	80.3562	10	27.2712	80.3562	0	30.448	79.796	10	30.448	79.796	0	33.6248	79.2358	10	33.6248	79.2358	0	43.1552	77.5554	10	46.332	76.9952	10	43.1552	77.5554	0	46.332	76.9952	0	49.5088	76.4351	10	49.5088	76.4351	0	52.6856	75.8749	10	52.6856	75.8749	0	55.8624	75.3148	10	55.8624	75.3148	0	59.0392	74.7546	10	59.0392	74.7546	0	62.216	74.1945	10	62.216	74.1945	0	65.3928	73.6343	10	65.3928	73.6343	0	68.5696	73.0741	10	68.5696	73.0741	0	71.7464	72.514	10	71.7464	72.514	0	74.9232	71.9538	10	74.9232	71.9538	0	78.1	71.3937	10	78.1	71.3937	0	81.2768	70.8335	10	81.2768	70.8335	0	84.4536	70.2734	10	84.4536	70.2734	0	87.6304	69.7132	10	87.6304	69.7132	0	90.8072	69.1531	10	90.8072	69.1531	0	93.984	68.5929	10	93.984	68.5929	0	97.1608	68.0327	10	97.1608	68.0327	0	100.338	67.4726	10	100.338	67.4726	0	103.514	66.9124	10	103.514	66.9124	0	106.691	66.3523	10	106.691	66.3523	0	109.868	65.7921	10	109.868	65.7921	0	113.045	65.232	10	113.045	65.232	0	14.0039	79.42	10	17.1807	78.8598	10	14.0039	79.42	0	17.1807	78.8598	0	20.3575	78.2997	10	20.3575	78.2997	0	23.5343	77.7395	10	23.5343	77.7395	0	26.7111	77.1794	10	26.7111	77.1794	0	29.8879	76.6192	10	29.8879	76.6192	0	42.5951	74.3786	10	45.7719	73.8184	10	42.5951	74.3786	0	45.7719	73.8184	0	48.9487	73.2583	10	48.9487	73.2583	0	52.1255	72.6981	10	52.1255	72.6981	0	55.3023	72.138	10	55.3023	72.138	0	58.4791	71.5778	10	58.4791	71.5778	0	61.6559	71.0176	10	61.6559	71.0176	0	64.8327	70.4575	10	64.8327	70.4575	0	68.0095	69.8973	10	68.0095	69.8973	0	71.1863	69.3372	10	71.1863	69.3372	0	74.3631	68.777	10	74.3631	68.777	0	77.5399	68.2169	10	77.5399	68.2169	0	80.7167	67.6567	10	80.7167	67.6567	0	83.8935	67.0966	10	83.8935	67.0966	0	87.0703	66.5364	10	87.0703	66.5364	0	90.2471	65.9762	10	90.2471	65.9762	0	93.4239	65.4161	10	93.4239	65.4161	0	96.6007	64.8559	10	96.6007	64.8559	0	99.7775	64.2958	10	99.7775	64.2958	0	102.954	63.7356	10	102.954	63.7356	0	106.131	63.1755	10	106.131	63.1755	0	109.308	62.6153	10	109.308	62.6153	0	112.485	62.0552	10	112.485	62.0552	0	13.4437	76.2432	10	16.6205	75.683	10	13.4437	76.2432	0	16.6205	75.683	0	19.7973	75.1229	10	19.7973	75.1229	0	22.9741	74.5627	10	22.9741	74.5627	0	26.1509	74.0026	10	26.1509	74.0026	0	45.2117	70.6416	10	48.3885	70.0815	10	45.2117	70.6416	0	48.3885	70.0815	0	51.5653	69.5213	10	51.5653	69.5213	0	54.7421	68.9612	10	54.7421	68.9612	0	57.9189	68.401	10	57.9189	68.401	0	61.0957	67.8409	10	61.0957	67.8409	0	64.2725	67.2807	10	64.2725	67.2807	0	67.4493	66.7205	10	67.4493	66.7205	0	70.6261	66.1604	10	70.6261	66.1604	0	73.8029	65.6002	10	73.8029	65.6002	0	76.9797	65.0401	10	76.9797	65.0401	0	80.1565	64.4799	10	80.1565	64.4799	0	83.3333	63.9198	10	83.3333	63.9198	0	86.5101	63.3596	10	86.5101	63.3596	0	92.8637	62.2393	10	96.0405	61.6791	10	92.8637	62.2393	0	96.0405	61.6791	0	99.2173	61.119	10	99.2173	61.119	0	102.394	60.5588	10	102.394	60.5588	0	105.571	59.9987	10	105.571	59.9987	0	108.748	59.4385	10	108.748	59.4385	0	111.925	58.8784	10	111.925	58.8784	0	12.8836	73.0664	10	16.0604	72.5062	10	12.8836	73.0664	0	16.0604	72.5062	0	44.6516	67.4648	10	47.8284	66.9047	10	44.6516	67.4648	0	47.8284	66.9047	0	51.0052	66.3445	10	51.0052	66.3445	0	54.182	65.7844	10	54.182	65.7844	0	57.3588	65.2242	10	57.3588	65.2242	0	60.5356	64.6641	10	60.5356	64.6641	0	63.7124	64.1039	10	63.7124	64.1039	0	66.8892	63.5437	10	66.8892	63.5437	0	70.066	62.9836	10	70.066	62.9836	0	73.2428	62.4234	10	73.2428	62.4234	0	76.4196	61.8633	10	76.4196	61.8633	0	79.5964	61.3031	10	79.5964	61.3031	0	82.7732	60.743	10	82.7732	60.743	0	92.3036	59.0625	10	95.4804	58.5023	10	92.3036	59.0625	0	95.4804	58.5023	0	98.6572	57.9422	10	98.6572	57.9422	0	101.834	57.382	10	101.834	57.382	0	105.011	56.8219	10	105.011	56.8219	0	108.188	56.2617	10	108.188	56.2617	0	111.364	55.7016	10	111.364	55.7016	0	44.0914	64.288	10	47.2682	63.7279	10	44.0914	64.288	0	47.2682	63.7279	0	50.445	63.1677	10	50.445	63.1677	0	53.6218	62.6076	10	
[...]
<CellData Scalars="scalars">
<DataArray type="Int32" Name="nodeid" format="ascii">1	2	3	4	1923	1924	1926	1925	1931	1932	1934	1933	1939	1940	1942	1941	1936	1938	1937	1930	1929	1943	1944	1946	1945	8	9	1947	1948	1950	1949	1955	1956	1959	1960	1962	1961	1957	1963	1964	1966	1965	1954	1967	1968	1970	1969	1971	1972	1974	1973	13	14	15	16	17	18	19	20	21	22	23	24	25	26	27	28	29	30	31	32	33	34	35	36	37	38	39	40	41	1975	1976	1978	1977	43	44	45	46	47	48	49	50	51	52	53	54	55	56	57	58	59	60	61	62	63	64	65	66	67	68	69	70	71	72	73	74	75	76	77	78	79	80	81	82	83	84	85	86	87	88	89	90	91	92	93	94	95	96	97	98	99	100	101	102	103	104	105	106	107	108	109	110	111	112	113	114	115	116	117	118	119	120	121	122	123	124	125	126	127	128	129	130	1979	1980	1982	1981	1983	1984	1986	1985	1987	1988	1990	1989	134	135	136	137	138	139	140	141	142	143	144	145	146	147	148	149	150	151	152	153	154	155	156	157	158	159	160	1991	1992	1994	1993	1995	1996	1998	1997	1999	2000	2002	2001	2003	2004	2006	2005	165	166	167	168	169	170	171	172	173	174	175	176	177	178	179	180	181	182	183	184	185	186	187	188	189	190	2007	2008	2010	2009	2011	2012	2014	2013	2015	2016	2018	2017	2019	2020	2022	2021	2023	2024	2026	2025	2027	2028	2030	2029	197	198	199	200	201	202	203	204	205	206	207	208	209	2031	2032	2035	2036	2038	2037	2033	2039	2040	2042	2043	2044	2046	2047	2048	2050	2049	212	213	214	215	216	217	218	2051	2052	2055	2056	2058	2057	2053	2059	2060	2062	2061	2063	2064	2066	2065	2067	2068	2070	2069	2071	2072	2074	2073	2075	2076	2078	2077	2079	2080	2082	2081	2083	2084	2086	2085	2087	2088	2090	2089	228	229	230	231	232	233	234	235	236	237	238	239	2091	2092	2094	2093	2095	2096	2098	2097	2103	2104	2106	2105	2100	2102	2101	243	244	245	246	247	248	2107	2108	2110	2109	2115	2116	2118	2117	2123	2124	2126	2125	2120	2122	2121	2114	2113	2127	2128	2130	2129	2131	2132	2134	2133	2135	2136	2138	2137	2139	2140	2142	2141	2143	2144	2146	2145	2147	2148	2150	2149	2151	2152	2154	2153	2155	2156	2158	2157	259	260	261	262	2159	2160	2162	2161	2163	2164	2166	2165	265	266	267	268	269	2167	2168	2170	2169	2175	2176	2179	2180	2182	2181	2177	2183	2184	2186	2185	2174	2187	2188	2190	2189	2191	2192	2194	2193	273	274	275	276	277	278	279	2195	2196	2198	2197	2199	2200	2202	2201	2203	2204	2206	2205	2207	2208	2210	2209	2211	2212	2214	2213	2215	2216	2218	2217	2219	2220	2222	2221	2223	2224	2226	2225	2227	2228	2230	2229	2231	2232	2234	2233	2235	2236	2238	2237	291	292	2239	2240	2242	2241	2243	2247	2248	2250	2249	2259	2263	2264	2266	2265	2271	2272	2274	2273	2267	2268	2270	2269	2251	2252	2255	2256	2258	2257	2253	2279	2280	2282	2283	2284	2286	2285	2276	2303	2304	2306	2305	2291	2292	2294	2293	2295	2296	2298	2297	2299	2300	2302	2301	2289	2307	2308	2310	2309	297	298	299	2311	2312	2314	2313	2315	2316	2318	2317	2319	2320	2322	2321	2323	2324	2326	2325	304	305	306	307	308	309	310	2327	2328	2330	2329	2331	2332	2334	2333	2335	2336	2338	2337	2339	2340	2342	2341	2343	2344	2346	2345	2347	2348	2350	2349	2351	2352	2354	2353	2355	2356	2358	2357	2359	2360	2362	2361	2363	2364	2366	2365	2367	2368	2370	2369	322	2371	2372	2374	2373	2375	2379	2380	2383	2384	2386	2385	2381	2399	2400	2402	2401	2403	2404	2406	2405	2398	2407	2408	2410	2409	2387	2388	2391	2392	2394	2393	2389	2419	2420	2422	2421	2423	2424	2426	2425	2418	2427	2428	2430	2429	2431	2432	2434	2433	2414	2435	2436	2438	2437	2443	2447	2448	2450	2449	2446	2445	2455	2456	2458	2457	2452	2463	2464	2466	2465	2459	2460	2462	2461	2467	2471	2472	2474	2473	2470	2469	2441	2479	2480	2482	2481	2476	2478	2487	2488	2490	2489	2484	2486	2491	2492	2494	2493	328	329	2495	2496	2498	2497	2499	2503	2504	2506	2505	2507	2508	2510	2509	2501	2515	2516	2518	2517	2519	2520	2522	2521	2531	2532	2539	2540	2542	2541	2535	2536	2538	2537	2523	2524	2527	2528	2530	2529	2525	2547	2548	2550	2549	2551	2552	2554	2553	2559	2560	2562	2561	2555	2556	2558	2557	2563	2564	2566	2565	335	336	337	338	339	340	341	2567	2568	2570	2569	2571	2572	2574	2573	2575	2576	2578	2577	2579	2580	2582	2581	2583	2584	2586	2585	2587	2588	2590	2589	2591	2592	2594	2593	2595	2596	2598	2597	2599	2600	2602	2601	2603	2604	2606	2605	2607	2608	2610	2609	2611	2612	2615	2616	2618	2617	2613	2619	2623	2624	2627	2628	2630	2629	2625	2643	2644	2646	2645	2647	2648	2650	2649	2642	2651	2652	2654	2653	2631	2632	2635	2636	2638	2637	2633	2663	2664	2666	2665	2667	2668	2670	2669	2662	2671	2672	2674	2673	2675	2676	2678	2677	2658	2679	2680	2682	2681	2683	2684	2686	2685	2687	2691	2692	2694	2693	2690	2689	2703	2704	2706	2705	2707	2708	2710	2709	2711	2712	2714	2713	2701	2715	2716	2718	2719	2720	2722	2721	2731	2732	2734	2733	2735	2736	2738	2737	2739	2740	2742	2741	2729	2723	2724	2726	2725	2743	2744	2746	2747	2748	2750	2749	360	2751	2752	2754	2753	2759	2760	2762	2761	2763	2764	2766	2765	2771	2772	2774	2773	2767	2768	2770	2769	2779	2783	2784	2786	2785	2791	2792	2794	2793	2787	2788	2790	2789	2799	2800	2802	2801	2803	2804	2806	2805	2811	2812	2814	2813	2807	2808	2810	2809	2835	2836	2838	2837	2839	2840	2842	2841	2847	2848	2850	2849	2843	2844	2846	2845	2819	2820	2822	2821	2823	2824	2826	2825	2827	2828	2830	2829	2817	2859	2860	2862	2861	2856	2858	2863	2864	2866	2865	2867	2868	2870	2869	2883	2884	2886	2885	2875	2876	2878	2877	2872	2874	2879	2880	2882	2881	2891	2892	2894	2893	2888	2890	2895	2896	2898	2897	366	367	368	369	370	371	372	2899	2900	2902	2901	2903	2904	2906	2905	2907	2908	2910	2909	2911	2912	2914	2913	2915	2916	2918	2917	2919	2920	2922	2921	2923	2924	2926	2925	2927	2928	2930	2929	2931	2932	2934	2933	2935	2936	2938	2937	2939	2940	2943	2944	2946	2945	2941	2951	2952	2954	2953	2955	2959	2960	2962	2961	2967	2968	2970	2969	2963	2964	2966	2965	2991	2992	2994	2993	2988	2990	2989	2971	2975	2976	2978	2977	2983	2984	2986	2985	2979	2980	2982	2981	3003	3004	3006	3005	3007	3008	3010	3009	3002	3001	3011	3012	3014	3013	2998	2997	3015	3016	3018	3017	387	388	3019	3023	3027	3028	3030	3029	3026	3025	3022	3021	3039	3040	3042	3041	3036	3047	3048	3050	3049	3043	3044	3046	3045	3051	3052	3054	3053	3067	3068	3070	3069	3064	3066	3071	3072	3074	3073	3055	3059	3060	3062	3061	3058	3057	3075	3076	3078	3077	3079	3080	3082	3081	3083	3087	3088	3090	3089	3086	3085	3095	3096	3098	3097	3099	3100	3102	3101	3107	3108	3110	3109	3103	3104	3106	3105	3115	3116	3118	3117	3119	3120	3122	3121	3114	3123	3124	3126	3125	3127	3128	3130	3129	397	398	399	400	401	402	403	3131	3132	3134	3133	3135	3136	3138	3137	3139	3140	3142	3141	3143	3144	3146	3145	3147	3148	3150	3149	3151	3152	3154	3153	3155	3156	3158	3157	3159	3160	3162	3161	3163	3164	3166	3165	3167	3168	3171	3172	3174	3173	3169	3179	3180	3182	3181	3183	3187	3188	3190	3189	3195	3196	3198	3197	3191	3192	3194	3193	3219	3220	3222	3221	3216	3218	3217	3199	3203	3204	3206	3205	3211	3212	3214	3213	3207	3208	3210	3209	3231	3232	3234	3233	3228	3230	3229	3224	3226	3225	3235	3236	3238	3237	417	418	419	3239	3240	3242	3241	3247	3248	3250	3249	3255	3256	3258	3257	3259	3260	3262	3261	3263	3264	3266	3265	3253	3267	3268	3270	3269	3245	3275	3276	3278	3279	3280	3282	3281	3272	3299	3300	3302	3301	3287	3288	3290	3289	3291	3292	3294	3293	3295	3296	3298	3297	3285	3303	3304	3306	3305	3307	3308	3310	3309	3311	3312	3314	3313	3315	3316	3318	3317	3319	3320	3322	3321	428	429	430	431	432	433	434	3323	3324	3326	3325	3327	3328	3330	3329	3331	3332	3334	3333	3335	3336	3338	3337	3339	3340	3342	3341	3343	3344	3346	3345	3347	3348	3350	3349	3351	3352	3354	3353	3355	3356	3359	3360	3363	3364	3366	3365	3361	3357	3371	3372	3375	3376	3378	3377	3373	3379	3383	3384	3386	3385	3391	3392	3394	3393	3387	3388	3390	3389	3411	3412	3414	3413	3399	3400	3402	3401	3403	3404	3406	3405	3398	3407	3408	3410	3409	3423	3424	3426	3425	3420	3422	3421	3416	3418	3417	3427	3428	3430	3429	3435	3436	3438	3437	3439	3440	3442	3443	3444	3446	3445	3447	3448	3450	3449	3433	3451	3452	3454	3453	449	450	451	3455	3456	3458	3457	3463	3467	3468	3470	3469	3466	3465	3475	3476	3478	3477	3472	3483	3484	3486	3485	3479	3480	3482	3481	3487	3491	3492	3494	3493	3490	3489	3461	3499	3500	3502	3501	3496	3498	3507	3508	3510	3509	3504	3506	3511	3512	3514	3513	455	456	457	458	459	460	461	462	463	464	465	3515	3516	3518	3517	3519	3520	3522	3521	3523	3524	3526	3525	3527	3528	3530	3529	3531	3532	3534	3533	3535	3536	3538	3537	3539	3540	3542	3541	3543	3544	3547	3548	3551	3552	3554	3553	3549	3545	3559	3560	3563	3564	3566	3565	3561	3571	3572	3574	3573	3575	3576	3578	3577	3570	3579	3580	3582	3581	3599	3600	3602	3601	3587	3588	3590	3589	3591	3592	3594	3593	3586	3595	3596	3598	3597	3607	3608	3610	3609	3604	3606	3605	3611	3612	3614	3613	3615	3616	3618	3617	3619	3620	3622	3621	3623	3624	3626	3625	480	481	482	483	3627	3631	3632	3634	3633	3630	3629	3643	3644	3646	3645	3647	3648	3650	3649	3651	3652	3654	3653	3641	3655	3656	3658	3659	3660	3662	3661	3671	3672	3674	3673	3675	3676	3678	3677	3679	3680	3682	3681	3669	3663	3664	3666	3665	3683	3684	3686	3687	3688	3690	3689	487	488	489	490	491	492	493	494	495	496	3691	3692	3694	3693	3695	3696	3698	3697	3699	3700	3702	3701	3703	3704	3706	3705	3707	3708	3710	3709	3711	3712	3714	3713	3715	3719	3720	3722	3721	3727	3731	3732	3734	3733	3739	3740	3742	3741	3735	3736	3738	3737	3723	3724	3726	3725	3747	3748	3751	3752	3754	3753	3749	3759	3760	3762	3761	3763	3764	3766	3765	3758	3767	3768	3770	3769	3783	3784	3786	3785	3775	3776	3778	3777	3779	3780	3782	3781	3774	3773	3791	3792	3794	3793	3788	3790	3789	3795	3796	3798	3797	3799	3800	3802	3801	3803	3804	3806	3805	3807	3808	3810	3809	3811	3812	3814	3813	511	512	513	514	515	3815	3819	3823	3824	3826	3825	3822	3821	3818	3817	3835	3836	3838	3837	3832	3843	3844	3846	3845	3839	3840	3842	3841	3847	3848	3850	3849	3863	3864	3866	3865	3860	3862	3867	3868	3870	3869	3851	3855	3856	3858	3857	3854	3853	3871	3872	3874	3873	519	520	521	522	523	524	525	526	527	3875	3876	3878	3877	3879	3880	3882	3881	3883	3884	3886	3885	3887	3888	3890	3889	3891	3892	3894	3893	3895	3899	3900	3902	3901	3907	3911	3912	3914	3913	3919	3920	3922	3921	3915	3916	3918	3917	3903	3904	3906	3905	3927	3931	3932	3934	3933	3939	3940	3942	3941	3935	3936	3938	3937	3947	3948	3950	3949	3944	3946	3945	3926	3955	3956	3958	3957	3952	3954	3953	3959	3960	3962	3961	3963	3964	3966	3965	3967	3968	3970	3969	3971	3972	3974	3973	3975	3976	3978	3977	3979	3980	3982	3981	3983	3984	3986	3985	542	543	544	545	546	3987	3988	3990	3989	3995	3996	3998	3997	4003	4004	4006	4005	4007	4008	4010	4009	4011	4012	4014	4013	4001	4015	4016	4018	4017	3993	4023	4024	4026	4027	4028	4030	4029	4020	4047	4048	4050	4049	4035	4036	4038	4037	4032	4043	4044	4046	4045	4039	4040	4042	4041	4051	4052	4054	4053	551	552	553	554	555	556	557	558	4055	4056	4058	4057	4059	4060	4062	4061	4063	4064	4066	4065	4067	4068	4070	4069	4071	4075	4076	4078	4077	4087	4091	4092	4094	4093	4099	4100	4102	4101	4095	4096	4098	4097	4079	4080	4083	4084	4086	4085	4081	4107	4111	4112	4114	4113	4119	4120	4122	4121	4115	4116	4118	4117	4127	4128	4130	4129	4124	4126	4125	4106	4135	4136	4138	4137	4132	4134	4133	4139	4140	4142	4141	4143	4144	4146	4145	4147	4148	4150	4149	4151	4152	4154	4153	4155	4156	4158	4157	4159	4160	4162	4161	4163	4164	4166	4165	4167	4168	4170	4169	4171	4172	4174	4173	574	575	576	577	578	4175	4176	4178	4177	4183	4187	4188	4190	4189	4186	4185	4195	4196	4198	4197	4192	4203	4204	4206	4205	4199	4200	4202	4201	4207	4211	4212	4214	4213	4215	4216	4218	4217	4209	4181	4223	4224	4226	4225	4220	4222	4227	4228	4230	4231	4232	4234	4233	582	583	584	585	586	587	588	589	4235	4236	4238	4237	4239	4240	4242	4241	4243	4244	4246	4245	4247	4251	4252	4255	4256	4258	4257	4253	4271	4272	4274	4273	4275	4276	4278	4277	4270	4279	4280	4282	4281	4259	4260	4263	4264	4266	4265	4261	4291	4292	4294	4293	4295	4296	4298	4297	4290	4299	4300	4302	4301	4303	4304	4306	4305	4286	4307	4308	4310	4309	4311	4312	4314	4313	4315	4316	4318	4317	4319	4320	4322	4321	4323	4324	4326	4325	4327	4328	4330	4329	4331	4332	4334	4333	4335	4336	4338	4337	4339	4340	4342	4341	4343	4344	4346	4345	4347	4348	4350	4349	605	606	607	608	609	610	4351	4355	4356	4358	4357	4354	4353	4367	4368	4370	4369	4371	4372	4374	4373	4375	4376	4378	4377	4365	4379	4380	4382	4383	4384	4386	4385	4395	4396	4398	4397	4392	4403	4404	4406	4405	4399	4400	4402	4401	4387	4388	4390	4389	4407	4408	4410	4411	4412	4414	4413	614	615	616	617	618	619	620	4415	4416	4418	4417	4419	4420	4423	4424	4426	4425	4421	4427	4431	4432	4435	4436	4438	4437	4433	4451	4452	4454	4453	4455	4456	4458	4457	4450	4459	4460	4462	4461	4439	4440	4443	4444	4446	4445	4441	4471	4472	4474	4473	4475	4476	4478	4477	4470	4479	4480	4482	4481	4483	4484	4486	4485	4466	4487	4488	4490	4489	4491	4492	4494	4493	4495	4496	4498	4497	4499	4500	4502	4501	4503	4504	4506	4505	4507	4508	4510	4509	4511	4512	4514	4513	4515	4516	4518	4517	4519	4520	4522	4521	4523	4524	4526	4525	4527	4528	4530	4529	4531	4532	4534	4533	4535	4536	4538	4537	637	638	639	640	641	642	4539	4543	4547	4548	4550	4549	4546	4545	4542	4541	4559	4560	4562	4561	4556	4567	4568	4570	4569	4563	4564	4566	4565	4571	4572	4574	4573	4583	4584	4586	4585	4575	4579	4580	4582	4581	4578	4577	4587	4588	4590	4589	646	647	648	649	650	651	4591	4592	4595	4596	4598	4597	4593	4603	4604	4606	4605	4607	4611	4612	4614	4613	4619	4620	4622	4621	4615	4616	4618	4617	4643	4644	4646	4645	4640	4642	4641	4623	4627	4628	4630	4629	4635	4636	4638	4637	4631	4632	4634	4633	4655	4656	4658	4657	4659	4660	4662	4661	4654	4653	4663	4664	4666	4665	4650	4649	4667	4668	4670	4669	4671	4672	4674	4673	4675	4676	4678	4677	4679	4680	4682	4681	4683	4684	4686	4685	4687	4688	4690	4689	4691	4692	4694	4693	4695	4696	4698	4697	4699	4700	4702	4701	4703	4704	4706	4705	4707	4708	4710	4709	4711	4712	4714	4713	4715	4716	4718	4717	668	669	670	671	672	673	674	4719	4720	4722	4721	676	677	678	679	680	681	682	4727	4728	4730	4729	4731	4735	4736	4738	4737	4743	4744	4746	4745	4739	4740	4742	4741	4767	4768	4770	4769	4764	4766	4765	4747	4751	4752	4754	4753	4759	4760	4762	4761	4755	4756	4758	4757	4779	4780	4782	4781	4776	4778	4777	4772	4774	4773	4783	4784	4786	4785	4787	4788	4790	4789	4791	4792	4794	4793	4795	4796	4798	4797	4799	4800	4802	4801	4803	4804	4806	4805	4807	4808	4810	4809	4811	4812	4814	4813	4815	4816	4818	4817	4819	4820	4822	4821	4823	4824	4826	4825	4827	4828	4830	4829	4831	4832	4834	4833	4835	4836	4838	4837	4839	4840	4842	4841	700	701	702	703	704	705	706	707	708	709	710	711	712	713	4851	4852	4854	4853	4848	4850	4849	4844	4846	4845	4855	4856	4858	4857	4859	4860	4862	4861	4863	4864	4866	4865	4867	4868	4870	4869	4871	4872	4874	4873	4875	4876	4878	4877	4879	4880	4882	4881	4883	4884	4886	4885	4887	4888	4890	4889	4891	4892	4894	4893	4895	4896	4898	4897	4899	4900	4902	4901	4903	4904	4906	4905	4907	4908	4910	4909	4911	4912	4914	4913	4915	4916	4918	4917	731	732	733	734	735	736	737	738	739	740	741	742	743	744	4919	4920	4922	4921	4923	4924	4926	4925	4927	4928	4930	4929	4931	4932	4934	4933	4935	4936	4938	4937	4939	4940	4942	4941	4943	4944	4946	4945	4947	4948	4950	4949	4951	4952	4954	4953	4955	4956	4958	4957	4959	4960	4962	4961	4963	4964	4966	4965	4967	4968	4970	4969	4971	4972	4974	4973	4975	4976	4978	4977	4979	4980	4982	4981	4983	4984	4986	4985	4987	4988	4990	4989	763	764	765	766	767	768	769	770	771	772	773	774	775	4991	4992	4994	4993	4995	4996	4998	4997	4999	5000	5002	5001	5003	5004	5006	5005	5007	5008	5010	5009	5011	5012	5014	5013	5015	5016	5018	5017	5019	5020	5022	5021	5023	5024	5026	5025	5027	5028	5030	5029	5031	5032	5034	5033	5035	5036	5038	5037	5039	5040	5042	5041	5043	5044	5046	5045	5047	5048	5050	5049	5051	5052	5054	5053	5055	5056	5058	5057	5059	5060	5062	5061	794	795	796	797	798	799	800	801	802	803	804	805	806	5063	5064	5066	5065	5067	5068	5070	5069	5071	5072	5074	5073	5075	5076	5078	5077	5079	5080	5082	5081	5083	5084	5086	5085	5087	5088	5090	5089	5091	5092	5094	5093	5095	5096	5098	5097	5099	5100	5102	5101	5103	5104	5106	5105	5107	5108	5110	5109	5111	5112	5114	5113	5115	5116	5118	5117	5119	5120	5122	5121	5123	5124	5126	5125	5127	5128	5130	5129	5131	5132	5134	5133	825	826	827	828	829	830	831	832	833	834	835	836	837	5135	5136	5138	5137	5139	5140	5142	5141	5143	5144	5146	5145	5147	5148	5150	5149	5151	5152	5154	5153	5155	5156	5158	5157	5159	5160	5162	5161	5163	5164	5166	5165	5167	5168	5170	5169	5171	5172	5174	5173	5175	5176	5178	5177	5179	5180	5182	5181	5183	5184	5186	5185	5187	5188	5190	5189	5191	5192	5194	5193	5195	5196	5198	5197	5199	5200	5202	5201	5203	5204	5206	5205	5207	5208	5210	5209	857	858	859	860	861	862	863	864	865	866	867	868	5211	5212	5214	5213	5215	5216	5218	5217	5219	5220	5222	5221	5223	5224	5226	5225	5227	5228	5230	5229	5231	5232	5234	5233	5235	5236	5238	5237	5239	5240	5242	5241	5243	5244	5246	5245	5247	5248	5250	5249	5251	5252	5254	5253	5255	5256	5258	5257	5259	5260	5262	5261	5263	5264	5266	5265	5267	5268	5270	5269	5271	5272	5274	5273	5275	5276	5278	5277	5279	5280	5282	5281	887	888	889	890	891	892	893	894	895	896	897	898	899	5283	5284	5286	5285	5287	5288	5290	5289	5291	5292	5294	5293	5295	5296	5298	5297	5299	5300	5302	5301	5303	5304	5306	5305	5307	5308	5310	5309	5311	5312	5314	5313	5315	5316	5318	5317	5319	5320	5322	5321	5323	5324	5326	5325	5327	5328	5330	5329	912	913	914	915	916	917	918	919	920	921	922	923	924	925	926	927	928	929	930	5331	5332	5334	5333	5335	5336	5338	5337	5339	5340	5342	5341	5343	5344	5346	5345	5347	5348	5350	5349	5351	5352	5354	5353	937	938	939	940	941	942	943	944	945	946	947	948	949	950	951	952	953	954	955	956	957	958	959	960	961	962	963	964	965	5355	5356	5358	5357	5363	5364	5366	5365	5371	5372	5374	5373	5368	5370	5369	5362	5361	5375	5376	5378	5377	969	970	5379	5380	5382	5381	5387	5388	5391	5392	5394	5393	5389	5395	5396	5398	5397	5386	5399	5400	5402	5401	5403	5404	5406	5405	974	975	976	977	978	979	980	981	982	983	984	985	986	987	988	989	990	991	992	993	994	995	996	997	998	999	1000	1001	1002	5407	5408	5410	5409	1004	1005	1006	1007	1008	1009	1010	1011	1012	1013	1014	1015	1016	1017	1018	1019	1020	1021	1022	1023	1024	1025	1026	1027	1028	1029	1030	1031	1032	1033	1034	1035	1036	1037	1038	1039	1040	1041	1042	1043	1044	1045	1046	1047	1048	1049	1050	1051	1052	1053	1054	1055	1056	1057	1058	1059	1060	1061	1062	1063	1064	1065	1066	1067	1068	1069	1070	1071	1072	1073	1074	1075	1076	1077	1078	1079	1080	1081	1082	1083	1084	1085	1086	1087	1088	1089	1090	1091	5411	5412	5414	5413	5415	5416	5418	5417	5419	5420	5422	5421	1095	1096	1097	1098	1099	1100	1101	1102	1103	1104	1105	1106	1107	1108	1109	1110	1111	1112	1113	1114	1115	1116	1117	1118	1119	1120	1121	5423	5424	5426	5425	5427	5428	5430	5429	5431	5432	5434	5433	5435	5436	5438	5437	1126	1127	1128	1129	1130	1131	1132	1133	1134	1135	1136	1137	1138	1139	1140	1141	1142	1143	1144	1145	1146	1147	1148	1149	1150	1151	5439	5440	5442	5441	5443	5444	5446	5445	5447	5448	5450	5449	5451	5452	5454	5453	5455	5456	5458	5457	5459	5460	5462	5461	1158	1159	1160	1161	1162	1163	1164	1165	1166	1167	1168	1169	1170	5463	5464	5467	5468	5470	5469	5465	5471	5472	5474	5475	5476	5478	5479	5480	5482	5481	1173	1174	1175	1176	1177	1178	1179	5483	5484	5487	5488	5490	5489	5485	5491	5492	5494	5493	5495	5496	5498	5497	5499	5500	5502	5501	5503	5504	5506	5505	5507	5508	5510	5509	5511	5512	5514	5513	5515	5516	5518	5517	5519	5520	5522	5521	1189	1190	1191	1192	1193	1194	1195	1196	1197	1198	1199	1200	5523	5524	5526	5525	5527	5528	5530	5529	5535	5536	5538	5537	5532	5534	5533	1204	1205	1206	1207	1208	1209	5539	5540	5542	5541	5547	5548	5550	5549	5555	5556	5558	5557	5552	5554	5553	5546	5545	5559	5560	5562	5561	5563	5564	5566	5565	5567	5568	5570	5569	5571	5572	5574	5573	5575	5576	5578	5577	5579	5580	5582	5581	5583	5584	5586	5585	5587	5588	5590	5589	1220	1221	1222	1223	5591	5592	5594	5593	5595	5596	5598	5597	1226	1227	1228	1229	1230	5599	5600	5602	5601	5607	5608	5611	5612	5614	5613	5609	5615	5616	5618	5617	5606	5619	5620	5622	5621	5623	5624	5626	5625	1234	1235	1236	1237	1238	1239	1240	5627	5628	5630	5629	5631	5632	5634	5633	5635	5636	5638	5637	5639	5640	5642	5641	5643	5644	5646	5645	5647	5648	5650	5649	5651	5652	5654	5653	5655	5656	5658	5657	5659	5660	5662	5661	5663	5664	5666	5665	5667	5668	5670	5669	1252	1253	5671	5672	5674	5673	5675	5679	5680	5682	5681	5691	5695	5696	5698	5697	5703	5704	5706	5705	5699	5700	5702	5701	5683	5684	5687	5688	5690	5689	5685	5711	5712	5714	5715	5716	5718	5717	5708	5735	5736	5738	5737	5723	5724	5726	5725	5727	5728	5730	5729	5731	