<?xml version="1.0"?>
<VTKFile type="UnstructuredGrid" version="0.1" byte_order="BigEndian">
<UnstructuredGrid GhostLevel="0">
<Piece NumberOfPoints="18270" NumberOfCells="7825" ><Points>
<DataArray type="Float32" NumberOfComponents="3" format="ascii">
700500	6.2e+06	50	700500	6.1995e+06	50	701000	6.2e+06	50	701000	6.1995e+06	50	700500	6.2e+06	-50	700500	6.1995e+06	-50	701000	6.2e+06	-50	701000	6.1995e+06	-50	701500	6.2e+06	50	701500	6.1995e+06	50	701500	6.2e+06	-50	701500	6.1995e+06	-50	702000	6.2e+06	50	702000	6.1995e+06	50	702500	6.2e+06	50	702500	6.1995e+06	50	702000	6.2e+06	-50	702000	6.1995e+06	-50	702500	6.2e+06	-50	702500	6.1995e+06	-50	703000	6.2e+06	50	703000	6.1995e+06	50	703000	6.2e+06	-50	703000	6.1995e+06	-50	703500	6.2e+06	50	703500	6.1995e+06	50	703500	6.2e+06	-50	703500	6.1995e+06	-50	704000	6.2e+06	50	704000	6.1995e+06	50	704000	6.2e+06	-50	704000	6.1995e+06	-50	704500	6.2e+06	50	704500	6.1995e+06	50	704500	6.2e+06	-50	704500	6.1995e+06	-50	705000	6.2e+06	50	705000	6.1995e+06	50	705000	6.2e+06	-50	705000	6.1995e+06	-50	700000	6.1995e+06	50	700000	6.199e+06	50	700500	6.199e+06	50	700000	6.1995e+06	-50	700000	6.199e+06	-50	700500	6.199e+06	-50	701000	6.199e+06	50	701000	6.199e+06	-50	701500	6.199e+06	50	701500	6.199e+06	-50	702000	6.199e+06	50	702000	6.199e+06	-50	702500	6.199e+06	50	702500	6.199e+06	-50	703000	6.199e+06	50	703000	6.199e+06	-50	703500	6.199e+06	50	703500	6.199e+06	-50	704000	6.199e+06	50	704000	6.199e+06	-50	704500	6.199e+06	50	704500	6.199e+06	-50	700000	6.1985e+06	50	700500	6.1985e+06	50	700000	6.1985e+06	-50	700500	6.1985e+06	-50	701000	6.1985e+06	50	701000	6.1985e+06	-50	701500	6.1985e+06	50	701500	6.1985e+06	-50	702000	6.1985e+06	50	702000	6.1985e+06	-50	702500	6.1985e+06	50	702500	6.1985e+06	-50	703000	6.1985e+06	50	703000	6.1985e+06	-50	703500	6.1985e+06	50	703500	6.1985e+06	-50	704000	6.1985e+06	50	704000	6.1985e+06	-50	704500	6.1985e+06	50	704500	6.1985e+06	-50	700000	6.198e+06	50	700500	6.198e+06	50	700000	6.198e+06	-50	700500	6.198e+06	-50	701000	6.198e+06	50	701000	6.198e+06	-50	701500	6.198e+06	50	701500	6.198e+06	-50	702000	6.198e+06	50	702000	6.198e+06	-50	702500	6.198e+06	50	702500	6.198e+06	-50	703000	6.198e+06	50	703000	6.198e+06	-50	703500	6.198e+06	50	703500	6.198e+06	-50	704000	6.198e+06	50	704000	6.198e+06	-50	704500	6.198e+06	50	704500	6.198e+06	-50	700000	6.1975e+06	50	700500	6.1975e+06	50	700000	6.1975e+06	-50	700500	6.1975e+06	-50	701000	6.1975e+06	50	701000	6.1975e+06	-50	701500	6.1975e+06	50	701500	6.1975e+06	-50	702000	6.1975e+06	50	702000	6.1975e+06	-50	702500	6.1975e+06	50	702500	6.1975e+06	-50	703000	6.1975e+06	50	703000	6.1975e+06	-50	703500	6.1975e+06	50	703500	6.1975e+06	-50	704000	6.1975e+06	50	704000	6.1975e+06	-50	704500	6.1975e+06	50	704500	6.1975e+06	-50	699500	6.1975e+06	50	699500	6.197e+06	50	700000	6.197e+06	50	699500	6.1975e+06	-50	699500	6.197e+06	-50	700000	6.197e+06	-50	700500	6.197e+06	50	700500	6.197e+06	-50	701000	6.197e+06	50	701000	6.197e+06	-50	701500	6.197e+06	50	701500	6.197e+06	-50	702000	6.197e+06	50	702000	6.197e+06	-50	702500	6.197e+06	50	702500	6.197e+06	-50	703000	6.197e+06	50	703000	6.197e+06	-50	703500	6.197e+06	50	703500	6.197e+06	-50	704000	6.197e+06	50	704000	6.197e+06	-50	704500	6.197e+06	50	704500	6.197e+06	-50	699000	6.197e+06	50	699000	6.1965e+06	50	699500	6.1965e+06	50	699000	6.197e+06	-50	699000	6.1965e+06	-50	699500	6.1965e+06	-50	700000	6.1965e+06	50	700000	6.1965e+06	-50	700500	6.1965e+06	50	700500	6.1965e+06	-50	701000	6.1965e+06	50	701000	6.1965e+06	-50	701500	6.1965e+06	50	701500	6.1965e+06	-50	702000	6.1965e+06	50	702000	6.1965e+06	-50	702500	6.1965e+06	50	702500	6.1965e+06	-50	703000	6.1965e+06	50	703000	6.1965e+06	-50	703500	6.1965e+06	50	703500	6.1965e+06	-50	704000	6.1965e+06	50	704000	6.1965e+06	-50	704500	6.1965e+06	50	704500	6.1965e+06	-50	698000	6.1965e+06	50	698000	6.196e+06	50	698500	6.1965e+06	50	698500	6.196e+06	50	698000	6.1965e+06	-50	698000	6.196e+06	-50	698500	6.1965e+06	-50	698500	6.196e+06	-50	699000	6.196e+06	50	699000	6.196e+06	-50	699500	6.196e+06	50	699500	6.196e+06	-50	700000	6.196e+06	50	700000	6.196e+06	-50	700500	6.196e+06	50	700500	6.196e+06	-50	701000	6.196e+06	50	701000	6.196e+06	-50	701500	6.196e+06	50	701500	6.196e+06	-50	702000	6.196e+06	50	702000	6.196e+06	-50	702500	6.196e+06	50	702500	6.196e+06	-50	703000	6.196e+06	50	703000	6.196e+06	-50	703500	6.196e+06	50	703500	6.196e+06	-50	704000	6.196e+06	50	704000	6.196e+06	-50	697000	6.196e+06	50	697000	6.1955e+06	50	697500	6.196e+06	50	697500	6.1955e+06	50	697000	6.196e+06	-50	697000	6.1955e+06	-50	697500	6.196e+06	-50	697500	6.1955e+06	-50	698000	6.1955e+06	50	698000	6.1955e+06	-50	698500	6.1955e+06	50	698500	6.1955e+06	-50	699000	6.1955e+06	50	699000	6.1955e+06	-50	699500	6.1955e+06	50	699500	6.1955e+06	-50	700000	6.1955e+06	50	700000	6.1955e+06	-50	700500	6.1955e+06	50	700500	6.1955e+06	-50	701000	6.1955e+06	50	701000	6.1955e+06	-50	701500	6.1955e+06	50	701500	6.1955e+06	-50	702000	6.1955e+06	50	702000	6.1955e+06	-50	702500	6.1955e+06	50	702500	6.1955e+06	-50	703000	6.1955e+06	50	703000	6.1955e+06	-50	703500	6.1955e+06	50	703500	6.1955e+06	-50	704000	6.1955e+06	50	704000	6.1955e+06	-50	695500	6.1955e+06	50	695500	6.195e+06	50	696000	6.1955e+06	50	696000	6.195e+06	50	695500	6.1955e+06	-50	695500	6.195e+06	-50	696000	6.1955e+06	-50	696000	6.195e+06	-50	696500	6.1955e+06	50	696500	6.195e+06	50	696500	6.1955e+06	-50	696500	6.195e+06	-50	697000	6.195e+06	50	697000	6.195e+06	-50	697500	6.195e+06	50	697500	6.195e+06	-50	698000	6.195e+06	50	698000	6.195e+06	-50	698500	6.195e+06	50	698500	6.195e+06	-50	699000	6.195e+06	50	699000	6.195e+06	-50	699500	6.195e+06	50	699500	6.195e+06	-50	700000	6.195e+06	50	700000	6.195e+06	-50	700500	6.195e+06	50	700500	6.195e+06	-50	701000	6.195e+06	50	701000	6.195e+06	-50	701500	6.195e+06	50	701500	6.195e+06	-50	702000	6.195e+06	50	702000	6.195e+06	-50	702500	6.195e+06	50	702500	6.195e+06	-50	703000	6.195e+06	50	703000	6.195e+06	-50	703500	6.195e+06	50	703500	6.195e+06	-50	704000	6.195e+06	50	704000	6.195e+06	-50	694500	6.195e+06	50	694500	6.1945e+06	50	695000	6.195e+06	50	695000	6.1945e+06	50	694500	6.195e+06	-50	694500	6.1945e+06	-50	695000	6.195e+06	-50	695000	6.1945e+06	-50	695500	6.1945e+06	50	695500	6.1945e+06	-50	696000	6.1945e+06	50	696000	6.1945e+06	-50	696500	6.1945e+06	50	696500	6.1945e+06	-50	697000	6.1945e+06	50	697000	6.1945e+06	-50	697500	6.1945e+06	50	697500	6.1945e+06	-50	698000	6.1945e+06	50	698000	6.1945e+06	-50	698500	6.1945e+06	50	698500	6.1945e+06	-50	699000	6.1945e+06	50	699000	6.1945e+06	-50	699500	6.1945e+06	50	699500	6.1945e+06	-50	700000	6.1945e+06	50	700000	6.1945e+06	-50	700500	6.1945e+06	50	700500	6.1945e+06	-50	701000	6.1945e+06	50	701000	6.1945e+06	-50	701500	6.1945e+06	50	701500	6.1945e+06	-50	702000	6.1945e+06	50	702000	6.1945e+06	-50	702500	6.1945e+06	50	702500	6.1945e+06	-50	703000	6.1945e+06	50	703000	6.1945e+06	-50	703500	6.1945e+06	50	703500	6.1945e+06	-50	704000	6.1945e+06	50	704000	6.1945e+06	-50	693500	6.1945e+06	50	693500	6.194e+06	50	694000	6.1945e+06	50	694000	6.194e+06	50	693500	6.1945e+06	-50	693500	6.194e+06	-50	694000	6.1945e+06	-50	694000	6.194e+06	-50	694500	6.194e+06	50	694500	6.194e+06	-50	695000	6.194e+06	50	695000	6.194e+06	-50	695500	6.194e+06	50	695500	6.194e+06	-50	696000	6.194e+06	50	696000	6.194e+06	-50	696500	6.194e+06	50	696500	6.194e+06	-50	697000	6.194e+06	50	697000	6.194e+06	-50	697500	6.194e+06	50	697500	6.194e+06	-50	698000	6.194e+06	50	698000	6.194e+06	-50	698500	6.194e+06	50	698500	6.194e+06	-50	699000	6.194e+06	50	699000	6.194e+06	-50	699500	6.194e+06	50	699500	6.194e+06	-50	700000	6.194e+06	50	700000	6.194e+06	-50	700500	6.194e+06	50	700500	6.194e+06	-50	701000	6.194e+06	50	701000	6.194e+06	-50	701500	6.194e+06	50	701500	6.194e+06	-50	702000	6.194e+06	50	702000	6.194e+06	-50	702500	6.194e+06	50	702500	6.194e+06	-50	703000	6.194e+06	50	703000	6.194e+06	-50	703500	6.194e+06	50	703500	6.194e+06	-50	704000	6.194e+06	50	704000	6.194e+06	-50	693500	6.1935e+06	50	694000	6.1935e+06	50	693500	6.1935e+06	-50	694000	6.1935e+06	-50	694500	6.1935e+06	50	694500	6.1935e+06	-50	695000	6.1935e+06	50	695000	6.1935e+06	-50	695500	6.1935e+06	50	695500	6.1935e+06	-50	696000	6.1935e+06	50	696000	6.1935e+06	-50	696500	6.1935e+06	50	696500	6.1935e+06	-50	697000	6.1935e+06	50	697000	6.1935e+06	-50	697500	6.1935e+06	50	697500	6.1935e+06	-50	698000	6.1935e+06	50	698000	6.1935e+06	-50	698500	6.1935e+06	50	698500	6.1935e+06	-50	699000	6.1935e+06	50	699000	6.1935e+06	-50	699500	6.1935e+06	50	699500	6.1935e+06	-50	700000	6.1935e+06	50	700000	6.1935e+06	-50	700500	6.1935e+06	50	700500	6.1935e+06	-50	701000	6.1935e+06	50	701000	6.1935e+06	-50	701500	6.1935e+06	50	701500	6.1935e+06	-50	702000	6.1935e+06	50	702000	6.1935e+06	-50	702500	6.1935e+06	50	702500	6.1935e+06	-50	703000	6.1935e+06	50	703000	6.1935e+06	-50	703500	6.1935e+06	50	703500	6.1935e+06	-50	704000	6.1935e+06	50	704000	6.1935e+06	-50	693000	6.1935e+06	50	693000	6.193e+06	50	693500	6.193e+06	50	693000	6.1935e+06	-50	693000	6.193e+06	-50	693500	6.193e+06	-50	694000	6.193e+06	50	694000	6.193e+06	-50	694500	6.193e+06	50	694500	6.193e+06	-50	695000	6.193e+06	50	695000	6.193e+06	-50	695500	6.193e+06	50	695500	6.193e+06	-50	696000	6.193e+06	50	696000	6.193e+06	-50	696500	6.193e+06	50	696500	6.193e+06	-50	697000	6.193e+06	50	697000	6.193e+06	-50	697500	6.193e+06	50	697500	6.193e+06	-50	698000	6.193e+06	50	698000	6.193e+06	-50	698500	6.193e+06	50	698500	6.193e+06	-50	699000	6.193e+06	50	699000	6.193e+06	-50	699500	6.193e+06	50	699500	6.193e+06	-50	700000	6.193e+06	50	700000	6.193e+06	-50	700500	6.193e+06	50	700500	6.193e+06	-50	701000	6.193e+06	50	701000	6.193e+06	-50	701500	6.193e+06	50	701500	6.193e+06	-50	702000	6.193e+06	50	702000	6.193e+06	-50	702500	6.193e+06	50	702500	6.193e+06	-50	703000	6.193e+06	50	703000	6.193e+06	-50	703500	6.193e+06	50	703500	6.193e+06	-50	704000	6.193e+06	50	704000	6.193e+06	-50	692500	6.193e+06	50	692500	6.1925e+06	50	693000	6.1925e+06	50	692500	6.193e+06	-50	692500	6.1925e+
[...]
<CellData Scalars="scalars">
<DataArray type="Int32" Name="nodeid" format="ascii">82	83	85	86	87	88	89	90	181	182	183	184	185	186	187	188	189	281	282	283	284	285	286	287	288	289	381	382	383	384	385	386	387	388	389	481	482	483	484	485	486	487	488	489	580	581	582	583	584	585	586	587	588	589	679	680	681	682	683	684	685	686	687	688	689	777	778	779	780	781	782	783	784	785	786	787	788	875	876	877	878	879	880	881	882	883	884	885	886	887	888	972	973	974	975	976	977	978	979	980	981	982	983	984	985	986	987	988	1070	1071	1072	1073	1074	1075	1076	1077	1078	1079	1080	1081	1082	1083	1084	1085	1086	1087	1088	1168	1169	1170	1171	1172	1173	1174	1175	1176	1177	1178	1179	1180	1181	1182	1183	1184	1185	1186	1187	1188	1268	1269	1270	1271	1272	1273	1274	1275	1276	1277	1278	1279	1280	1281	1282	1283	1284	1285	1286	1287	1288	1367	1368	1369	1370	1371	1372	1373	1374	1375	1376	1377	1378	1379	1380	1381	1382	1383	1384	1385	1386	1387	1388	1466	1467	1468	1469	1470	1471	1472	1473	1474	1475	1476	1477	1478	1479	1480	1481	1482	1483	1484	1485	1486	1487	1488	1564	1565	1566	1567	1568	1569	1570	1571	1572	1573	1574	1575	1576	1577	1578	1579	1580	1581	1582	1583	1584	1585	1586	1587	1664	1665	1666	1667	1668	1669	1670	1671	1672	1673	1674	1675	1676	1677	1678	1679	1680	1681	1682	1683	1684	1685	1686	1687	1765	1766	1767	1768	1769	1770	1771	1772	1773	1774	1775	1776	1777	1778	1779	1780	1781	1782	1783	1784	1785	1786	1787	1864	1865	1866	1867	1868	1869	1870	1871	1872	1873	1874	1875	1876	1877	1878	1879	1880	1881	1882	1883	1884	1885	1886	1887	1953	1954	1955	1956	1957	1958	1959	1960	1961	1962	1963	1964	1965	1966	1967	1968	1969	1970	1971	1972	1973	1974	1975	1976	1977	1978	1979	1980	1981	1982	1983	1984	1985	1986	1987	2053	2054	2055	2056	2057	2058	2059	2060	2061	2062	2063	2064	2065	2066	2067	2068	2069	2070	2071	2072	2073	2074	2075	2076	2077	2078	2079	2080	2081	2082	2083	2084	2085	2086	2087	2154	2155	2156	2157	2158	2159	2160	2161	2162	2163	2164	2165	2166	2167	2168	2169	2170	2171	2172	2173	2174	2175	2176	2177	2178	2179	2180	2181	2182	2183	2184	2185	2186	2187	2255	2256	2257	2258	2259	2260	2261	2262	2263	2264	2265	2266	2267	2268	2269	2270	2271	2272	2273	2274	2275	2276	2277	2278	2279	2280	2281	2282	2283	2284	2285	2286	2287	2354	2355	2356	2357	2358	2359	2360	2361	2362	2363	2364	2365	2366	2367	2368	2369	2370	2371	2372	2373	2374	2375	2376	2377	2378	2379	2380	2381	2382	2383	2384	2385	2386	2387	2453	2454	2455	2456	2457	2458	2459	2460	2461	2462	2463	2464	2465	2466	2467	2468	2469	2470	2471	2472	2473	2474	2475	2476	2477	2478	2479	2480	2481	2482	2483	2484	2485	2486	2487	10001	10002	10004	10003	10005	10006	10008	10007	10009	10010	10012	10011	2556	2557	2558	2559	2560	2561	2562	2563	2564	2565	2566	2567	2568	2569	2570	2571	2572	2573	2574	2575	2576	2577	2578	2579	2580	2581	2582	2583	2584	2585	2586	2587	10014	10016	10015	10021	10022	10024	10023	10025	10026	10028	10027	10020	10019	10033	10034	10036	10035	10037	10038	10040	10039	10032	10031	10045	10046	10048	10047	10042	10044	10049	10050	10052	10051	2656	2657	2658	2659	2660	2661	2662	2663	2664	2665	2666	2667	2668	2669	2670	2671	2672	2673	2674	2675	2676	2677	2678	2679	2680	2681	2682	2683	2684	10053	10054	10056	10055	10057	10058	10065	10066	10068	10067	10061	10062	10064	10063	10069	10073	10074	10076	10075	2751	2752	2753	10077	10078	10080	10079	10085	10086	10088	10087	10089	10090	10092	10091	10093	10094	10096	10095	10083	10097	10098	10100	10099	10101	10102	10109	10110	10112	10111	10105	10106	10108	10107	10113	10114	10121	10122	10124	10123	10117	10118	10120	10119	10125	10126	10128	10129	10130	10132	10131	10133	10134	10137	10138	10140	10139	10135	10141	10142	10149	10150	10152	10151	10145	10146	10148	10147	10153	10154	10156	10155	10157	10158	10160	10159	10161	10162	10164	10163	10165	10166	10168	10167	2766	2767	2768	2769	2770	2771	2772	2773	2774	2775	2776	2777	2778	2779	2780	2781	2782	2783	2784	10169	10173	10174	10176	10175	10177	10178	10180	10179	10171	10185	10186	10188	10187	10182	10184	10183	10189	10191	2851	2852	2853	2854	10193	10197	10198	10200	10199	10196	10195	10205	10206	10208	10207	10209	10210	10212	10211	10204	10203	10217	10218	10220	10219	10214	10216	10215	10221	10222	10224	10223	10229	10230	10232	10231	10233	10234	10236	10235	10228	10227	10241	10242	10244	10243	10245	10246	10248	10247	10240	10239	10249	10253	10254	10256	10255	10252	10251	10261	10262	10264	10263	10265	10266	10268	10267	10260	10259	10273	10274	10276	10275	10277	10278	10280	10279	10272	10271	10285	10286	10288	10287	10289	10290	10292	10291	10284	10283	10297	10298	10300	10299	10294	10305	10306	10308	10307	10301	10302	10304	10303	10309	10310	10312	10313	10314	10316	10315	2867	2868	2869	2870	2871	2872	2873	2874	2875	2876	2877	2878	2879	2880	10317	10318	10320	10319	10321	10322	10325	10326	10328	10327	10323	10329	10330	10337	10338	10340	10339	10333	10334	10336	10335	10341	10342	10349	10350	10352	10351	10345	10346	10348	10347	10357	10358	10360	10359	10361	10362	10364	10363	10356	10365	10366	10368	10367	10369	10370	10372	10371	2887	2951	2952	2953	2954	2955	2956	2957	2958	2959	2960	2961	2962	2963	2964	10373	10374	10376	10375	10381	10382	10384	10383	10378	10380	10385	10386	10388	10387	2967	2968	2969	2970	2971	2972	2973	2974	2975	2976	10389	10390	10392	10391	10393	10394	10396	10395	10397	10398	10401	10402	10404	10403	10399	10405	10406	10413	10414	10416	10415	10409	10410	10412	10411	10421	10422	10424	10423	10425	10426	10428	10427	10420	10429	10430	10432	10431	10437	10438	10440	10439	10441	10442	10444	10443	10436	10435	10445	10446	10448	10447	10449	10450	10452	10451	10453	10454	10456	10455	2986	2987	3050	3051	3052	3053	3054	3055	3056	3057	3058	3059	3060	3061	3062	3063	3064	10457	10458	10460	10459	10465	10466	10468	10467	10469	10470	10472	10471	10473	10474	10476	10475	10463	10477	10478	10485	10486	10488	10487	10481	10482	10484	10483	10489	10490	10497	10498	10500	10499	10493	10494	10496	10495	10501	10502	10504	10505	10506	10508	10507	10509	10510	10512	10511	3071	3072	3073	3074	3075	10513	10514	10516	10515	10517	10521	10522	10524	10523	10529	10530	10532	10531	10525	10526	10528	10527	10537	10538	10540	10539	10541	10542	10544	10543	10536	10535	10549	10550	10552	10551	10553	10554	10556	10555	10548	10547	10557	10558	10560	10559	10561	10562	10564	10563	3082	3083	3084	3085	3086	3087	3148	3149	3150	3151	3152	3153	3154	3155	3156	3157	3158	3159	3160	3161	3162	3163	3164	3165	10565	10566	10568	10567	10569	10570	10572	10571	10573	10574	10576	10575	10581	10582	10584	10583	10585	10586	10588	10587	10580	10579	10593	10594	10596	10595	10590	10601	10602	10604	10603	10597	10598	10600	10599	10605	10606	10608	10607	3172	3173	10609	10610	10612	10611	10613	10614	10621	10622	10624	10623	10617	10618	10620	10619	10629	10630	10632	10631	10633	10634	10636	10635	10628	10637	10638	10640	10639	10645	10646	10648	10647	10642	10644	10643	3178	3179	3180	3181	3182	3183	3184	3185	3186	3187	3243	3244	3245	3246	3247	3248	3249	3250	3251	3252	3253	3254	3255	3256	3257	3258	3259	3260	3261	3262	3263	3264	3265	3266	3267	3268	3269	10649	10653	10654	10656	10655	10652	10651	10661	10662	10664	10663	10665	10666	10668	10667	10669	10670	10672	10671	10659	10673	10674	10681	10682	10684	10683	10677	10678	10680	10679	10685	10686	10693	10694	10696	10695	10689	10690	10692	10691	10697	10701	10702	10704	10703	10709	10710	10712	10711	10705	10706	10708	10707	10717	10718	10720	10719	10714	10716	10715	10721	10722	10724	10723	3277	3278	3279	3280	3281	3282	3283	3284	3285	3286	3287	3343	3344	3345	3346	3347	3348	3349	3350	3351	3352	3353	3354	3355	3356	3357	3358	3359	3360	3361	3362	3363	3364	3365	3366	3367	3368	3369	3370	10725	10726	10728	10727	10729	10730	10732	10731	10733	10734	10736	10735	10737	10738	10740	10739	3375	3376	3377	3378	3379	3380	3381	3382	3383	3384	3385	3386	3387	3445	3446	3447	3448	3449	3450	3451	3452	3453	3454	3455	3456	3457	3458	3459	3460	3461	3462	3463	3464	3465	3466	3467	3468	3469	3470	3471	3472	3473	3474	3475	3476	3477	3478	3479	3480	3481	3482	3483	3484	3485	3486	3487	3545	3546	3547	3548	3549	3550	3551	3552	3553	3554	3555	3556	3557	3558	3559	3560	3561	3562	3563	3564	3565	3566	3567	3568	3569	3570	3571	3572	3573	3574	3575	3576	3577	3578	3579	3580	3581	3582	3583	3584	3585	3586	3587	3644	3645	3646	3647	3648	3649	3650	3651	3652	3653	3654	3655	3656	3657	3658	3659	3660	3661	3662	3663	3664	3665	3666	3667	3668	3669	3670	3671	3672	3673	3674	3675	3676	3677	3678	3679	3680	3681	3682	3683	3684	3685	3686	3687	3740	3741	3742	3743	3744	3745	3746	3747	3748	3749	3750	3751	3752	3753	3754	3755	3756	3757	3758	3759	3760	3761	3762	3763	3764	3765	3766	3767	3768	3769	3770	3771	3772	3773	3774	3775	3776	3777	3778	3779	3780	3781	3782	3783	3784	3785	3786	3787	3838	3839	3840	3841	3842	3843	3844	3845	3846	3847	3848	3849	3850	3851	3852	3853	3854	3855	3856	3857	3858	3859	3860	3861	3862	3863	3864	3865	3866	3867	3868	3869	3870	3871	3872	3873	3874	3875	3876	3877	3878	3879	3880	3881	3882	3883	3884	3885	3886	3887	3936	3937	3938	3939	3940	3941	3942	3943	3944	3945	3946	3947	3948	3949	3950	3951	3952	3953	3954	3955	3956	3957	3958	3959	3960	3961	3962	3963	3964	3965	3966	3967	3968	3969	3970	3971	3972	3973	3974	3975	3976	3977	3978	3979	3980	3981	3982	3983	3984	3985	3986	3987	4032	4033	4034	4035	4036	4037	4038	4039	4040	4041	4042	4043	4044	4045	4046	4047	4048	4049	4050	4051	4052	4053	4054	4055	4056	4057	4058	4059	4060	4061	4062	4063	4064	4065	4066	4067	10741	10742	10744	10743	10745	10746	10748	10747	10749	10750	10757	10758	10760	10759	10753	10754	10756	10755	10761	10762	10769	10770	10772	10771	10765	10766	10768	10767	10773	10774	10776	10777	10778	10780	10779	10781	10782	10784	10783	10785	10786	10788	10787	10789	10790	10792	10791	10793	10794	10796	10795	10797	10798	10800	10799	10801	10802	10804	10803	10805	10806	10808	10807	10809	10810	10812	10811	10813	10814	10816	10815	10817	10818	10825	10826	10828	10827	10821	10822	10824	10823	10829	10830	10832	10833	10834	10836	10835	10837	10838	10840	10839	4085	4086	10841	10842	10845	10847	10843	4128	4129	4130	4131	4132	4133	4134	4135	4136	4137	4138	4139	4140	4141	4142	4143	4144	4145	4146	4147	4148	4149	4150	4151	4152	4153	4154	4155	4156	4157	4158	4159	4160	4161	4162	4163	4164	10853	10854	10856	10855	10857	10858	10860	10859	10861	10862	10869	10870	10872	10871	10865	10866	10868	10867	10873	10877	10878	10880	10879	10885	10886	10888	10887	10881	10882	10884	10883	10893	10894	10896	10895	10897	10898	10900	10899	10892	10891	10905	10906	10908	10907	10902	10904	10903	10909	10910	10912	10911	10917	10918	10920	10919	10921	10922	10924	10923	10916	10915	10929	10930	10932	10931	10933	10934	10936	10935	10928	10927	10941	10942	10944	10943	10945	10946	10948	10947	10940	10939	10953	10954	10956	10955	10957	10958	10960	10959	10952	10951	10965	10966	10968	10967	10969	10970	10972	10971	10964	10963	10977	10978	10980	10979	10981	10982	10984	10983	10976	10975	10989	10990	10992	10991	10993	10994	10996	10995	10988	10987	11001	11002	11004	11003	11005	11006	11008	11007	11000	10999	11013	11014	11016	11015	11010	11021	11022	11024	11023	11017	11018	11020	11019	11025	11026	11029	11030	11032	11031	11027	11037	11038	11040	11039	11034	11036	11041	11042	11044	11043	11049	11050	11052	11051	11053	11054	11056	11055	11048	11047	11061	11062	11064	11063	11058	11069	11070	11072	11071	11065	11066	11068	11067	11073	11074	11076	11075	11077	11078	11085	11086	11088	11087	11081	11082	11084	11083	11093	11094	11096	11095	11097	11099	11092	11101	11102	11104	11103	4226	4227	4228	4229	4230	4231	4232	4233	4234	4235	4236	4237	4238	4239	4240	4241	4242	4243	4244	4245	4246	4247	4248	4249	4250	4251	4252	4253	4254	4255	4256	4257	4258	4259	4260	4261	4262	11109	11110	11112	11111	11113	11114	11117	11118	11120	11119	11115	11121	11125	11126	11128	11127	11133	11134	11136	11135	11129	11130	11132	11131	11141	11142	11144	11143	11145	11146	11148	11147	11140	11139	11153	11154	11156	11155	11150	11152	11151	11157	11158	11160	11159	4269	4270	4271	4272	4273	4274	4275	4276	4277	4278	4279	11161	11165	11166	11168	11167	11164	11163	11173	11174	11176	11175	11177	11178	11180	11179	11172	11171	11181	11182	11184	11183	4283	11185	11189	11190	11192	11191	11188	11187	11197	11198	11200	11199	11201	11202	11204	11203	11196	11195	11209	11210	11212	11211	11206	11208	11207	11213	11215	4323	4324	4325	11217	11218	11220	11219	11221	11222	11229	11230	11232	11231	11225	11226	11228	11227	11233	11234	11236	11235	11237	11238	11240	11239	4330	4331	4332	4333	4334	4335	4336	4337	4338	4339	4340	4341	4342	4343	4344	4345	4346	4347	4348	4349	4350	4351	4352	4353	4354	4355	4356	4357	4358	11241	11242	11244	11243	11245	11246	11248	11247	11249	11250	11253	11254	11256	11255	11251	11257	11258	11265	11266	11268	11267	11261	11262	11264	11263	11269	11273	11274	11276	11275	11281	11282	11284	11283	11277	11278	11280	11279	11289	11290	11292	11291	11293	11294	11296	11295	11288	11287	11297	11298	11300	11299	4366	4367	4368	4369	4370	4371	4372	4373	4374	4375	4376	4377	4378	4379	4380	4381	4382	4383	4384	4385	4386	4387	11305	11306	11308	11307	11309	11310	11312	11311	11313	11314	11317	11318	11320	11319	11315	11321	11322	11329	11330	11332	11331	11325	11326	11328	11327	11337	11338	11340	11339	11341	11342	11344	11343	11336	11345	11346	11348	11347	11353	11354	11356	11355	11357	11358	11360	11359	11352	11351	11365	11366	11368	11367	11362	11373	11374	11376	11375	11369	11370	11372	11371	11377	11378	11385	11386	11388	11387	11381	11382	11384	11383	11389	11390	11392	11393	11394	11396	11395	11397	11398	11400	11399	4433	4434	4435	4436	4437	4438	4439	4440	4441	4442	4443	4444	4445	4446	4447	4448	4449	4450	4451	4452	4453	4454	11401	11402	11404	11403	11405	11406	11413	11414	11416	11415	11409	11410	11412	11411	11417	11418	11425	11426	11428	11427	11421	11422	11424	11423	11429	11430	11437	11438	11440	11439	11433	11434	11436	11435	11441	11445	11446	11448	11447	11453	11454	11456	11455	11449	11450	11452	11451	11461	11462	11464	11463	11465	11466	11468	11467	11460	11459	11473	11474	11476	11475	11477	11478	11480	11479	11472	11471	11481	11482	11484	11483	11485	11486	11488	11487	4464	4465	4466	4467	4468	4469	4470	4471	4472	4473	4474	4475	4476	4477	4478	4479	4480	4481	4482	4483	4484	4485	4486	4487	4520	11492	11491	11493	11498	11500	11499	11505	11506	11508	11507	11501	11502	11504	11503	11513	11514	11516	11515	11517	11518	11520	11519	11521	11522	11524	11523	11511	11525	11529	11530	11532	11531	11537	11538	11540	11539	11533	11534	11536	11535	11545	11546	11548	11547	11549	11550	11552	11551	11544	11543	11553	11554	11556	11555	11557	11558	11560	11559	4528	11561	11562	11564	11563	11565	11569	11570	11572	11571	11568	11567	11577	11578	11580	11579	11581	11582	11584	11583	11576	11575	11589	11590	11592	11591	11593	11594	11596	11595	11601	11602	11604	11603	11597	11598	11600	11599	11605	11606	11613	11614	11616	11615	11609	11610	11612	11611	11617	11618	11625	11626	11628	11627	11621	11622	11624	11623	11629	11630	11632	11631	11633	11634	11636	11635	4537	4538	4539	4540	4541	4542	4543	4544	4545	4546	4547	4548	4549	4550	4551	11637	11638	11640	11639	11641	11642	11645	11646	11648	11647	11643	11649	11650	11657	11658	11660	11659	11653	11654	11656	11655	11665	11666	11668	11667	11669	11670	11672	11671	11664	11673	11674	11676	11675	11681	11682	11684	11683	11678	11680	11679	11685	11686	11688	11687	11689	11690	11692	11691	11693	11694	11696	11695	4560	4561	4562	4563	4564	4565	4566	4567	4568	4569	4570	4571	4572	4573	4574	4575	4576	4577	4578	4579	4580	4581	4582	4583	4584	4585	4586	4587	4618	4619	11697	11698	11701	11702	11704	11703	11699	11705	11709	11710	11712	11711	11717	11718	11720	11719	11713	11714	11716	11715	11725	11726	11728	11727	11722	11724	11723	11729	11730	11732	11731	11733	11734	11736	11735	4625	4626	4627	4628	4629	4630	11737	11738	11741	11742	11744	11743	11739	11749	11750	11752	11751	11746	11748	11753	11754	11756	11755	11757	11758	11760	11759	11761	11765	11766	11768	11767	11764	11763	11773	11774	11776	11775	11777	11778	11780	11779	11772	11771	11785	11786	11788	11787	11789	11790	11792	11791	11793	11794	11796	11795	11783	11797	11798	11800	11801	11802	11804	11803	11805	11806	11808	11807	4639	4640	4641	4642	4643	4644	4645	4646	4647	11809	11810	11812	11811	11813	11814	11817	11818	11820	11819	11815	11821	11822	11829	11830	11832	11831	11825	11826	11828	11827	11833	11834	11841	11842	11844	11843	11837	11838	11840	11839	11849	11850	11852	11851	11853	11854	11856	11855	11861	11862	11864	11863	11857	11858	11860	11859	11869	11870	11872	11871	11873	11874	11876	11875	11868	11877	11878	11880	11879	11881	11882	11884	11883	11885	11886	11888	11887	4656	4657	4658	4659	4660	4661	4662	4663	4664	4665	4666	4667	4668	4669	4670	4671	4672	4673	4674	4675	4676	4677	4678	4679	4680	4681	4682	4683	4684	4685	4686	4687	4717	4718	11889	11890	11892	11891	11897	11898	11900	11899	11901	11902	11904	11903	11896	11905	11906	11908	11907	11909	11910	11912	11911	4722	4723	4724	4725	4726	11913	11914	11916	11915	11917	11918	11920	11919	11921	11922	11925	11926	11928	11927	11923	11929	11930	11937	11938	11940	11939	11933	11934	11936	11935	11945	11946	11948	11947	11949	11950	11952	11951	11944	11953	11954	11956	11955	11957	11958	11960	11959	4733	4734	4735	11961	11962	11964	11963	11969	11970	11972	11971	11973	11974	11976	11975	11968	11967	11981	11982	11984	11983	11985	11986	11988	11987	11989	11990	11992	11991	11979	11993	11994	12001	12002	12004	12003	11997	11998	12000	11999	12005	12006	12013	12014	12016	12015	12009	12010	12012	12011	12017	12018	12025	12026	12028	12027	12021	12022	12024	12023	12029	12030	12037	12038	12040	12039	12033	12034	12036	12035	12041	12042	12049	12050	12052	12051	12045	12046	12048	12047	12053	12054	12056	12055	12057	12058	12065	12066	12068	12067	12061	12062	12064	12063	12069	12070	12077	12078	12080	12079	12073	12074	12076	12075	12081	12082	12089	12090	12092	12091	12085	12086	12088	12087	12097	12098	12100	12099	12101	12102	12104	12103	12096	12105	12106	12108	12107	12113	12114	12116	12115	12117	12118	12120	12119	12112	12111	12121	12122	12124	12123	12125	12126	12128	12127	12129	12130	12132	12131	12133	12134	12136	12135	4754	4755	4756	4757	4758	4759	4760	4761	4762	4763	4764	4765	4766	4767	4768	4769	4770	4771	4772	4773	4774	4775	4776	4777	4778	4779	4780	4781	4782	4783	4784	4785	4786	4787	4816	4817	4818	12137	12138	12141	12142	12144	12143	12139	12149	12150	12152	12151	12146	12148	12153	12154	12156	12155	4821	4822	12157	12158	12161	12162	12164	12163	12159	12165	12166	12173	12174	12176	12175	12169	12170	12172	12171	12177	12178	12185	12186	12188	12187	12181	12182	12184	12183	12189	12190	12197	12198	12200	12199	12193	12194	12196	12195	12205	12206	12208	12207	12209	12210	12212	12211	12204	12213	12214	12216	12215	12221	12222	12224	12223	12225	12226	12228	12227	12220	12219	12233	12234	12236	12235	12237	12238	12240	12239	12232	12231	12241	12242	12244	12243	12245	12246	12248	12247	4832	4833	4834	4835	4836	4837	12249	12250	12252	12251	12253	12254	12256	12255	12257	12258	12260	12259	12261	12262	12264	12263	12265	12266	12268	12267	12269	12273	12274	12276	12275	12272	12271	12281	12282	12284	12283	12285	12286	12288	12287	12280	12279	12293	12294	12296	12295	12290	12292	12291	12297	12298	12300	12299	12301	12302	12304	12303	12305	12306	12308	12307	4849	4850	4851	4852	4853	4854	4855	4856	4857	4858	4859	4860	4861	4862	4863	4864	4865	4866	4867	4868	4869	4870	4871	4872	4873	4874	4875	4876	4877	4878	4879	4880	4881	4882	12309	12310	12312	12311	12313	12314	12316	12315	4885	4886	12317	12318	12321	12322	12324	12323	12319	12325	12326	12333	12334	12336	12335	12329	12330	12332	12331	12337	12338	12345	12346	12348	12347	12341	12342	12344	12343	12353	12354	12356	12355	12357	12358	12360	12359	12352	12361	12362	12364	12363	12365	12366	12368	12367	12369	12370	12372	12371	12373	12374	12381	12382	12384	12383	12377	12378	12380	12379	12389	12390	12392	12391	12393	12394	12396	12395	12388	12397	12398	12400	12399	12401	12402	12404	12403	12405	12406	12408	12407	12409	12410	12412	12411	12413	12414	12416	12415	4928	4929	4930	4931	4932	4933	4934	4935	4936	4937	4938	4939	4940	4941	4942	4943	4944	4945	4946	4947	4948	4949	4950	4951	4952	4953	4954	4955	4956	4957	4958	4959	4960	4961	4962	4963	4964	4965	4966	4967	4968	4969	4970	4971	4972	4973	4974	4975	4976	4977	4978	4979	4980	4981	12417	12418	12420	12419	124