<?xml version="1.0"?>
<VTKFile type="UnstructuredGrid" version="0.1" byte_order="BigEndian">
<UnstructuredGrid GhostLevel="0">
<Piece NumberOfPoints="18398" NumberOfCells="7878" ><Points>
<DataArray type="Float32" NumberOfComponents="3" format="ascii">
701000	6.204e+06	50	701000	6.2035e+06	50	701500	6.204e+06	50	701500	6.2035e+06	50	701000	6.204e+06	-50	701000	6.2035e+06	-50	701500	6.204e+06	-50	701500	6.2035e+06	-50	702000	6.204e+06	50	702000	6.2035e+06	50	702000	6.204e+06	-50	702000	6.2035e+06	-50	702500	6.204e+06	50	702500	6.2035e+06	50	702500	6.204e+06	-50	702500	6.2035e+06	-50	703000	6.204e+06	50	703000	6.2035e+06	50	703000	6.204e+06	-50	703000	6.2035e+06	-50	703500	6.204e+06	50	703500	6.2035e+06	50	703500	6.204e+06	-50	703500	6.2035e+06	-50	701000	6.203e+06	50	701500	6.203e+06	50	701000	6.203e+06	-50	701500	6.203e+06	-50	702000	6.203e+06	50	702000	6.203e+06	-50	702500	6.203e+06	50	702500	6.203e+06	-50	703000	6.203e+06	50	703000	6.203e+06	-50	703500	6.203e+06	50	703500	6.203e+06	-50	704000	6.2035e+06	50	704000	6.203e+06	50	704000	6.2035e+06	-50	704000	6.203e+06	-50	704500	6.2035e+06	50	704500	6.203e+06	50	704500	6.2035e+06	-50	704500	6.203e+06	-50	701000	6.2025e+06	50	701500	6.2025e+06	50	701000	6.2025e+06	-50	701500	6.2025e+06	-50	702000	6.2025e+06	50	702000	6.2025e+06	-50	702500	6.2025e+06	50	702500	6.2025e+06	-50	703000	6.2025e+06	50	703000	6.2025e+06	-50	703500	6.2025e+06	50	703500	6.2025e+06	-50	704000	6.2025e+06	50	704000	6.2025e+06	-50	704500	6.2025e+06	50	704500	6.2025e+06	-50	705000	6.203e+06	50	705000	6.2025e+06	50	705000	6.203e+06	-50	705000	6.2025e+06	-50	701000	6.202e+06	50	701500	6.202e+06	50	701000	6.202e+06	-50	701500	6.202e+06	-50	702000	6.202e+06	50	702000	6.202e+06	-50	702500	6.202e+06	50	702500	6.202e+06	-50	703000	6.202e+06	50	703000	6.202e+06	-50	703500	6.202e+06	50	703500	6.202e+06	-50	704000	6.202e+06	50	704000	6.202e+06	-50	704500	6.202e+06	50	704500	6.202e+06	-50	705000	6.202e+06	50	705000	6.202e+06	-50	701500	6.2015e+06	50	702000	6.2015e+06	50	701500	6.2015e+06	-50	702000	6.2015e+06	-50	702500	6.2015e+06	50	702500	6.2015e+06	-50	703000	6.2015e+06	50	703000	6.2015e+06	-50	703500	6.2015e+06	50	703500	6.2015e+06	-50	704000	6.2015e+06	50	704000	6.2015e+06	-50	704500	6.2015e+06	50	704500	6.2015e+06	-50	705000	6.2015e+06	50	705000	6.2015e+06	-50	701500	6.201e+06	50	702000	6.201e+06	50	701500	6.201e+06	-50	702000	6.201e+06	-50	702500	6.201e+06	50	702500	6.201e+06	-50	703000	6.201e+06	50	703000	6.201e+06	-50	703500	6.201e+06	50	703500	6.201e+06	-50	704000	6.201e+06	50	704000	6.201e+06	-50	704500	6.201e+06	50	704500	6.201e+06	-50	705000	6.201e+06	50	705000	6.201e+06	-50	702000	6.2005e+06	50	702500	6.2005e+06	50	702000	6.2005e+06	-50	702500	6.2005e+06	-50	703000	6.2005e+06	50	703000	6.2005e+06	-50	703500	6.2005e+06	50	703500	6.2005e+06	-50	704000	6.2005e+06	50	704000	6.2005e+06	-50	704500	6.2005e+06	50	704500	6.2005e+06	-50	705000	6.2005e+06	50	705000	6.2005e+06	-50	702500	6.2e+06	50	703000	6.2e+06	50	702500	6.2e+06	-50	703000	6.2e+06	-50	703500	6.2e+06	50	703500	6.2e+06	-50	704000	6.2e+06	50	704000	6.2e+06	-50	704500	6.2e+06	50	704500	6.2e+06	-50	705000	6.2e+06	50	705000	6.2e+06	-50	700500	6.2e+06	50	700500	6.1995e+06	50	701000	6.2e+06	50	701000	6.1995e+06	50	700500	6.2e+06	-50	700500	6.1995e+06	-50	701000	6.2e+06	-50	701000	6.1995e+06	-50	701500	6.2e+06	50	701500	6.1995e+06	50	701500	6.2e+06	-50	701500	6.1995e+06	-50	702000	6.2e+06	50	702000	6.1995e+06	50	702500	6.1995e+06	50	702000	6.2e+06	-50	702000	6.1995e+06	-50	702500	6.1995e+06	-50	703000	6.1995e+06	50	703000	6.1995e+06	-50	703500	6.1995e+06	50	703500	6.1995e+06	-50	704000	6.1995e+06	50	704000	6.1995e+06	-50	704500	6.1995e+06	50	704500	6.1995e+06	-50	705000	6.1995e+06	50	705000	6.1995e+06	-50	700000	6.1995e+06	50	700000	6.199e+06	50	700500	6.199e+06	50	700000	6.1995e+06	-50	700000	6.199e+06	-50	700500	6.199e+06	-50	701000	6.199e+06	50	701000	6.199e+06	-50	701500	6.199e+06	50	701500	6.199e+06	-50	702000	6.199e+06	50	702000	6.199e+06	-50	702500	6.199e+06	50	702500	6.199e+06	-50	703000	6.199e+06	50	703000	6.199e+06	-50	703500	6.199e+06	50	703500	6.199e+06	-50	704000	6.199e+06	50	704000	6.199e+06	-50	704500	6.199e+06	50	704500	6.199e+06	-50	700000	6.1985e+06	50	700500	6.1985e+06	50	700000	6.1985e+06	-50	700500	6.1985e+06	-50	701000	6.1985e+06	50	701000	6.1985e+06	-50	701500	6.1985e+06	50	701500	6.1985e+06	-50	702000	6.1985e+06	50	702000	6.1985e+06	-50	702500	6.1985e+06	50	702500	6.1985e+06	-50	703000	6.1985e+06	50	703000	6.1985e+06	-50	703500	6.1985e+06	50	703500	6.1985e+06	-50	704000	6.1985e+06	50	704000	6.1985e+06	-50	704500	6.1985e+06	50	704500	6.1985e+06	-50	700000	6.198e+06	50	700500	6.198e+06	50	700000	6.198e+06	-50	700500	6.198e+06	-50	701000	6.198e+06	50	701000	6.198e+06	-50	701500	6.198e+06	50	701500	6.198e+06	-50	702000	6.198e+06	50	702000	6.198e+06	-50	702500	6.198e+06	50	702500	6.198e+06	-50	703000	6.198e+06	50	703000	6.198e+06	-50	703500	6.198e+06	50	703500	6.198e+06	-50	704000	6.198e+06	50	704000	6.198e+06	-50	704500	6.198e+06	50	704500	6.198e+06	-50	700000	6.1975e+06	50	700500	6.1975e+06	50	700000	6.1975e+06	-50	700500	6.1975e+06	-50	701000	6.1975e+06	50	701000	6.1975e+06	-50	701500	6.1975e+06	50	701500	6.1975e+06	-50	702000	6.1975e+06	50	702000	6.1975e+06	-50	702500	6.1975e+06	50	702500	6.1975e+06	-50	703000	6.1975e+06	50	703000	6.1975e+06	-50	703500	6.1975e+06	50	703500	6.1975e+06	-50	704000	6.1975e+06	50	704000	6.1975e+06	-50	704500	6.1975e+06	50	704500	6.1975e+06	-50	699500	6.1975e+06	50	699500	6.197e+06	50	700000	6.197e+06	50	699500	6.1975e+06	-50	699500	6.197e+06	-50	700000	6.197e+06	-50	700500	6.197e+06	50	700500	6.197e+06	-50	701000	6.197e+06	50	701000	6.197e+06	-50	701500	6.197e+06	50	701500	6.197e+06	-50	702000	6.197e+06	50	702000	6.197e+06	-50	702500	6.197e+06	50	702500	6.197e+06	-50	703000	6.197e+06	50	703000	6.197e+06	-50	703500	6.197e+06	50	703500	6.197e+06	-50	704000	6.197e+06	50	704000	6.197e+06	-50	704500	6.197e+06	50	704500	6.197e+06	-50	699000	6.197e+06	50	699000	6.1965e+06	50	699500	6.1965e+06	50	699000	6.197e+06	-50	699000	6.1965e+06	-50	699500	6.1965e+06	-50	700000	6.1965e+06	50	700000	6.1965e+06	-50	700500	6.1965e+06	50	700500	6.1965e+06	-50	701000	6.1965e+06	50	701000	6.1965e+06	-50	701500	6.1965e+06	50	701500	6.1965e+06	-50	702000	6.1965e+06	50	702000	6.1965e+06	-50	702500	6.1965e+06	50	702500	6.1965e+06	-50	703000	6.1965e+06	50	703000	6.1965e+06	-50	703500	6.1965e+06	50	703500	6.1965e+06	-50	704000	6.1965e+06	50	704000	6.1965e+06	-50	704500	6.1965e+06	50	704500	6.1965e+06	-50	698000	6.1965e+06	50	698000	6.196e+06	50	698500	6.1965e+06	50	698500	6.196e+06	50	698000	6.1965e+06	-50	698000	6.196e+06	-50	698500	6.1965e+06	-50	698500	6.196e+06	-50	699000	6.196e+06	50	699000	6.196e+06	-50	699500	6.196e+06	50	699500	6.196e+06	-50	700000	6.196e+06	50	700000	6.196e+06	-50	700500	6.196e+06	50	700500	6.196e+06	-50	701000	6.196e+06	50	701000	6.196e+06	-50	701500	6.196e+06	50	701500	6.196e+06	-50	702000	6.196e+06	50	702000	6.196e+06	-50	702500	6.196e+06	50	702500	6.196e+06	-50	703000	6.196e+06	50	703000	6.196e+06	-50	703500	6.196e+06	50	703500	6.196e+06	-50	704000	6.196e+06	50	704000	6.196e+06	-50	697000	6.196e+06	50	697000	6.1955e+06	50	697500	6.196e+06	50	697500	6.1955e+06	50	697000	6.196e+06	-50	697000	6.1955e+06	-50	697500	6.196e+06	-50	697500	6.1955e+06	-50	698000	6.1955e+06	50	698000	6.1955e+06	-50	698500	6.1955e+06	50	698500	6.1955e+06	-50	699000	6.1955e+06	50	699000	6.1955e+06	-50	699500	6.1955e+06	50	699500	6.1955e+06	-50	700000	6.1955e+06	50	700000	6.1955e+06	-50	700500	6.1955e+06	50	700500	6.1955e+06	-50	701000	6.1955e+06	50	701000	6.1955e+06	-50	701500	6.1955e+06	50	701500	6.1955e+06	-50	702000	6.1955e+06	50	702000	6.1955e+06	-50	702500	6.1955e+06	50	702500	6.1955e+06	-50	703000	6.1955e+06	50	703000	6.1955e+06	-50	703500	6.1955e+06	50	703500	6.1955e+06	-50	704000	6.1955e+06	50	704000	6.1955e+06	-50	695500	6.1955e+06	50	695500	6.195e+06	50	696000	6.1955e+06	50	696000	6.195e+06	50	695500	6.1955e+06	-50	695500	6.195e+06	-50	696000	6.1955e+06	-50	696000	6.195e+06	-50	696500	6.1955e+06	50	696500	6.195e+06	50	696500	6.1955e+06	-50	696500	6.195e+06	-50	697000	6.195e+06	50	697000	6.195e+06	-50	697500	6.195e+06	50	697500	6.195e+06	-50	698000	6.195e+06	50	698000	6.195e+06	-50	698500	6.195e+06	50	698500	6.195e+06	-50	699000	6.195e+06	50	699000	6.195e+06	-50	699500	6.195e+06	50	699500	6.195e+06	-50	700000	6.195e+06	50	700000	6.195e+06	-50	700500	6.195e+06	50	700500	6.195e+06	-50	701000	6.195e+06	50	701000	6.195e+06	-50	701500	6.195e+06	50	701500	6.195e+06	-50	702000	6.195e+06	50	702000	6.195e+06	-50	702500	6.195e+06	50	702500	6.195e+06	-50	703000	6.195e+06	50	703000	6.195e+06	-50	703500	6.195e+06	50	703500	6.195e+06	-50	704000	6.195e+06	50	704000	6.195e+06	-50	694500	6.195e+06	50	694500	6.1945e+06	50	695000	6.195e+06	50	695000	6.1945e+06	50	694500	6.195e+06	-50	694500	6.1945e+06	-50	695000	6.195e+06	-50	695000	6.1945e+06	-50	695500	6.1945e+06	50	695500	6.1945e+06	-50	696000	6.1945e+06	50	696000	6.1945e+06	-50	696500	6.1945e+06	50	696500	6.1945e+06	-50	697000	6.1945e+06	50	697000	6.1945e+06	-50	697500	6.1945e+06	50	697500	6.1945e+06	-50	698000	6.1945e+06	50	698000	6.1945e+06	-50	698500	6.1945e+06	50	698500	6.1945e+06	-50	699000	6.1945e+06	50	699000	6.1945e+06	-50	699500	6.1945e+06	50	699500	6.1945e+06	-50	700000	6.1945e+06	50	700000	6.1945e+06	-50	700500	6.1945e+06	50	700500	6.1945e+06	-50	701000	6.1945e+06	50	701000	6.1945e+06	-50	701500	6.1945e+06	50	701500	6.1945e+06	-50	702000	6.1945e+06	50	702000	6.1945e+06	-50	702500	6.1945e+06	50	702500	6.1945e+06	-50	703000	6.1945e+06	50	703000	6.1945e+06	-50	703500	6.1945e+06	50	703500	6.1945e+06	-50	704000	6.1945e+06	50	704000	6.1945e+06	-50	693500	6.1945e+06	50	693500	6.194e+06	50	694000	6.1945e+06	50	694000	6.194e+06	50	693500	6.1945e+06	-50	693500	6.194e+06	-50	694000	6.1945e+06	-50	694000	6.194e+06	-50	694500	6.194e+06	50	694500	6.194e+06	-50	695000	6.194e+06	50	695000	6.194e+06	-50	695500	6.194e+06	50	695500	6.194e+06	-50	696000	6.194e+06	50	696000	6.194e+06	-5
[...]
<CellData Scalars="scalars">
<DataArray type="Int32" Name="nodeid" format="ascii">283	284	285	286	287	383	384	385	386	387	388	389	483	484	485	486	487	488	489	490	583	584	585	586	587	588	589	590	684	685	686	687	688	689	690	784	785	786	787	788	789	790	885	886	887	888	889	890	986	987	988	989	990	1082	1083	1085	1086	1087	1088	1089	1090	1181	1182	1183	1184	1185	1186	1187	1188	1189	1281	1282	1283	1284	1285	1286	1287	1288	1289	1381	1382	1383	1384	1385	1386	1387	1388	1389	1481	1482	1483	1484	1485	1486	1487	1488	1489	1580	1581	1582	1583	1584	1585	1586	1587	1588	1589	1679	1680	1681	1682	1683	1684	1685	1686	1687	1688	1689	1777	1778	1779	1780	1781	1782	1783	1784	1785	1786	1787	1788	1875	1876	1877	1878	1879	1880	1881	1882	1883	1884	1885	1886	1887	1888	1972	1973	1974	1975	1976	1977	1978	1979	1980	1981	1982	1983	1984	1985	1986	1987	1988	2070	2071	2072	2073	2074	2075	2076	2077	2078	2079	2080	2081	2082	2083	2084	2085	2086	2087	2088	2168	2169	2170	2171	2172	2173	2174	2175	2176	2177	2178	2179	2180	2181	2182	2183	2184	2185	2186	2187	2188	2268	2269	2270	2271	2272	2273	2274	2275	2276	2277	2278	2279	2280	2281	2282	2283	2284	2285	2286	2287	2288	2367	2368	2369	2370	2371	2372	2373	2374	2375	2376	2377	2378	2379	2380	2381	2382	2383	2384	2385	2386	2387	2388	2466	2467	2468	2469	2470	2471	2472	2473	2474	2475	2476	2477	2478	2479	2480	2481	2482	2483	2484	2485	2486	2487	2488	2564	2565	2566	2567	2568	2569	2570	2571	2572	2573	2574	2575	2576	2577	2578	2579	2580	2581	2582	2583	2584	2585	2586	2587	2664	2665	2666	2667	2668	2669	2670	2671	2672	2673	2674	2675	2676	2677	2678	2679	2680	2681	2682	2683	2684	2685	2686	2687	2765	2766	2767	2768	2769	2770	2771	2772	2773	2774	2775	2776	2777	2778	2779	2780	2781	2782	2783	2784	2785	2786	2787	2864	2865	2866	2867	2868	2869	2870	2871	2872	2873	2874	2875	2876	2877	2878	2879	2880	2881	2882	2883	2884	2885	2886	2887	2953	2954	2955	2956	2957	2958	2959	2960	2961	2962	2963	2964	2965	2966	2967	2968	2969	2970	2971	2972	2973	2974	2975	2976	2977	2978	2979	2980	2981	2982	2983	2984	2985	2986	2987	3053	3054	3055	3056	3057	3058	3059	3060	3061	3062	3063	3064	3065	3066	3067	3068	3069	3070	3071	3072	3073	3074	3075	3076	3077	3078	3079	3080	3081	3082	3083	3084	3085	3086	3087	3154	3155	3156	3157	3158	3159	3160	3161	3162	3163	3164	3165	3166	3167	3168	3169	3170	3171	3172	3173	3174	3175	3176	3177	3178	3179	3180	3181	3182	3183	3184	3185	3186	3187	3255	3256	3257	3258	3259	3260	3261	3262	3263	3264	3265	3266	3267	3268	3269	3270	3271	3272	3273	3274	3275	3276	3277	3278	3279	3280	3281	3282	3283	3284	3285	3286	3287	3354	3355	3356	3357	3358	3359	3360	3361	3362	3363	3364	3365	3366	3367	3368	3369	3370	3371	3372	3373	3374	3375	3376	3377	3378	3379	3380	3381	3382	3383	3384	3385	3386	3387	3453	3454	3455	3456	3457	3458	3459	3460	3461	3462	3463	3464	3465	3466	3467	3468	3469	3470	3471	3472	3473	3474	3475	3476	3477	3478	3479	3480	3481	3482	3483	3484	3485	3486	3487	11001	11002	11004	11003	11005	11006	11008	11007	11009	11010	11012	11011	3556	3557	3558	3559	3560	3561	3562	3563	3564	3565	3566	3567	3568	3569	3570	3571	3572	3573	3574	3575	3576	3577	3578	3579	3580	3581	3582	3583	3584	3585	3586	3587	11014	11016	11015	11021	11022	11024	11023	11025	11026	11028	11027	11020	11019	11033	11034	11036	11035	11037	11038	11040	11039	11032	11031	11045	11046	11048	11047	11042	11044	11049	11050	11052	11051	3656	3657	3658	3659	3660	3661	3662	3663	3664	3665	3666	3667	3668	3669	3670	3671	3672	3673	3674	3675	3676	3677	3678	3679	3680	3681	3682	3683	3684	11053	11054	11056	11055	11057	11058	11065	11066	11068	11067	11061	11062	11064	11063	11069	11073	11074	11076	11075	3751	3752	3753	11077	11078	11080	11079	11085	11086	11088	11087	11089	11090	11092	11091	11093	11094	11096	11095	11083	11097	11098	11100	11099	11101	11102	11109	11110	11112	11111	11105	11106	11108	11107	11113	11114	11121	11122	11124	11123	11117	11118	11120	11119	11125	11126	11128	11129	11130	11132	11131	11133	11134	11137	11138	11140	11139	11135	11141	11142	11149	11150	11152	11151	11145	11146	11148	11147	11153	11154	11156	11155	11157	11158	11160	11159	11161	11162	11164	11163	11165	11166	11168	11167	3766	3767	3768	3769	3770	3771	3772	3773	3774	3775	3776	3777	3778	3779	3780	3781	3782	3783	3784	11169	11173	11174	11176	11175	11177	11178	11180	11179	11171	11185	11186	11188	11187	11182	11184	11183	11189	11191	3851	3852	3853	3854	11193	11197	11198	11200	11199	11196	11195	11205	11206	11208	11207	11209	11210	11212	11211	11204	11203	11217	11218	11220	11219	11214	11216	11215	11221	11222	11224	11223	11229	11230	11232	11231	11233	11234	11236	11235	11228	11227	11241	11242	11244	11243	11245	11246	11248	11247	11240	11239	11249	11253	11254	11256	11255	11252	11251	11261	11262	11264	11263	11265	11266	11268	11267	11260	11259	11273	11274	11276	11275	11277	11278	11280	11279	11272	11271	11285	11286	11288	11287	11289	11290	11292	11291	11284	11283	11297	11298	11300	11299	11294	11305	11306	11308	11307	11301	11302	11304	11303	11309	11310	11312	11313	11314	11316	11315	3867	3868	3869	3870	3871	3872	3873	3874	3875	3876	3877	3878	3879	3880	11317	11318	11320	11319	11321	11322	11325	11326	11328	11327	11323	11329	11330	11337	11338	11340	11339	11333	11334	11336	11335	11341	11342	11349	11350	11352	11351	11345	11346	11348	11347	11357	11358	11360	11359	11361	11362	11364	11363	11356	11365	11366	11368	11367	11369	11370	11372	11371	3887	3951	3952	3953	3954	3955	3956	3957	3958	3959	3960	3961	3962	3963	3964	11373	11374	11376	11375	11381	11382	11384	11383	11378	11380	11385	11386	11388	11387	3967	3968	3969	3970	3971	3972	3973	3974	3975	3976	11389	11390	11392	11391	11393	11394	11396	11395	11397	11398	11401	11402	11404	11403	11399	11405	11406	11413	11414	11416	11415	11409	11410	11412	11411	11421	11422	11424	11423	11425	11426	11428	11427	11420	11429	11430	11432	11431	11437	11438	11440	11439	11441	11442	11444	11443	11436	11435	11445	11446	11448	11447	11449	11450	11452	11451	11453	11454	11456	11455	3986	3987	4050	4051	4052	4053	4054	4055	4056	4057	4058	4059	4060	4061	4062	4063	4064	11457	11458	11460	11459	11465	11466	11468	11467	11469	11470	11472	11471	11473	11474	11476	11475	11463	11477	11478	11485	11486	11488	11487	11481	11482	11484	11483	11489	11490	11497	11498	11500	11499	11493	11494	11496	11495	11501	11502	11504	11505	11506	11508	11507	11509	11510	11512	11511	4071	4072	4073	4074	4075	11513	11514	11516	11515	11517	11521	11522	11524	11523	11529	11530	11532	11531	11525	11526	11528	11527	11537	11538	11540	11539	11541	11542	11544	11543	11536	11535	11549	11550	11552	11551	11553	11554	11556	11555	11548	11547	11557	11558	11560	11559	11561	11562	11564	11563	4082	4083	4084	4085	4086	4087	4148	4149	4150	4151	4152	4153	4154	4155	4156	4157	4158	4159	4160	4161	4162	4163	4164	4165	11565	11566	11568	11567	11569	11570	11572	11571	11573	11574	11576	11575	11581	11582	11584	11583	11585	11586	11588	11587	11580	11579	11593	11594	11596	11595	11590	11601	11602	11604	11603	11597	11598	11600	11599	11605	11606	11608	11607	4172	4173	11609	11610	11612	11611	11613	11614	11621	11622	11624	11623	11617	11618	11620	11619	11629	11630	11632	11631	11633	11634	11636	11635	11628	11637	11638	11640	11639	11645	11646	11648	11647	11642	11644	11643	4178	4179	4180	4181	4182	4183	4184	4185	4186	4187	4243	4244	4245	4246	4247	4248	4249	4250	4251	4252	4253	4254	4255	4256	4257	4258	4259	4260	4261	4262	4263	4264	4265	4266	4267	4268	4269	11649	11653	11654	11656	11655	11652	11651	11661	11662	11664	11663	11665	11666	11668	11667	11669	11670	11672	11671	11659	11673	11674	11681	11682	11684	11683	11677	11678	11680	11679	11685	11686	11693	11694	11696	11695	11689	11690	11692	11691	11697	11701	11702	11704	11703	11709	11710	11712	11711	11705	11706	11708	11707	11717	11718	11720	11719	11714	11716	11715	11721	11722	11724	11723	4277	4278	4279	4280	4281	4282	4283	4284	4285	4286	4287	4343	4344	4345	4346	4347	4348	4349	4350	4351	4352	4353	4354	4355	4356	4357	4358	4359	4360	4361	4362	4363	4364	4365	4366	4367	4368	4369	4370	11725	11726	11728	11727	11729	11730	11732	11731	11733	11734	11736	11735	11737	11738	11740	11739	4375	4376	4377	4378	4379	4380	4381	4382	4383	4384	4385	4386	4387	4445	4446	4447	4448	4449	4450	4451	4452	4453	4454	4455	4456	4457	4458	4459	4460	4461	4462	4463	4464	4465	4466	4467	4468	4469	4470	4471	4472	4473	4474	4475	4476	4477	4478	4479	4480	4481	4482	4483	4484	4485	4486	4487	4545	4546	4547	4548	4549	4550	4551	4552	4553	4554	4555	4556	4557	4558	4559	4560	4561	4562	4563	4564	4565	4566	4567	4568	4569	4570	4571	4572	4573	4574	4575	4576	4577	4578	4579	4580	4581	4582	4583	4584	4585	4586	4587	4644	4645	4646	4647	4648	4649	4650	4651	4652	4653	4654	4655	4656	4657	4658	4659	4660	4661	4662	4663	4664	4665	4666	4667	4668	4669	4670	4671	4672	4673	4674	4675	4676	4677	4678	4679	4680	4681	4682	4683	4684	4685	4686	4687	4740	4741	4742	4743	4744	4745	4746	4747	4748	4749	4750	4751	4752	4753	4754	4755	4756	4757	4758	4759	4760	4761	4762	4763	4764	4765	4766	4767	4768	4769	4770	4771	4772	4773	4774	4775	4776	4777	4778	4779	4780	4781	4782	4783	4784	4785	4786	4787	4838	4839	4840	4841	4842	4843	4844	4845	4846	4847	4848	4849	4850	4851	4852	4853	4854	4855	4856	4857	4858	4859	4860	4861	4862	4863	4864	4865	4866	4867	4868	4869	4870	4871	4872	4873	4874	4875	4876	4877	4878	4879	4880	4881	4882	4883	4884	4885	4886	4887	4936	4937	4938	4939	4940	4941	4942	4943	4944	4945	4946	4947	4948	4949	4950	4951	4952	4953	4954	4955	4956	4957	4958	4959	4960	4961	4962	4963	4964	4965	4966	4967	4968	4969	4970	4971	4972	4973	4974	4975	4976	4977	4978	4979	4980	4981	4982	4983	4984	4985	4986	4987	5032	5033	5034	5035	5036	5037	5038	5039	5040	5041	5042	5043	5044	5045	5046	5047	5048	5049	5050	5051	5052	5053	5054	5055	5056	5057	5058	5059	5060	5061	5062	5063	5064	5065	5066	5067	11741	11742	11744	11743	11745	11746	11748	11747	11749	11750	11757	11758	11760	11759	11753	11754	11756	11755	11761	11762	11769	11770	11772	11771	11765	11766	11768	11767	11773	11774	11776	11777	11778	11780	11779	11781	11782	11784	11783	11785	11786	11788	11787	11789	11790	11792	11791	11793	11794	11796	11795	11797	11798	11800	11799	11801	11802	11804	11803	11805	11806	11808	11807	11809	11810	11812	11811	11813	11814	11816	11815	11817	11818	11825	11826	11828	11827	11821	11822	11824	11823	11829	11830	11832	11833	11834	11836	11835	11837	11838	11840	11839	5085	5086	11841	11842	11845	11847	11843	5128	5129	5130	5131	5132	5133	5134	5135	5136	5137	5138	5139	5140	5141	5142	5143	5144	5145	5146	5147	5148	5149	5150	5151	5152	5153	5154	5155	5156	5157	5158	5159	5160	5161	5162	5163	5164	11853	11854	11856	11855	11857	11858	11860	11859	11861	11862	11869	11870	11872	11871	11865	11866	11868	11867	11873	11877	11878	11880	11879	11885	11886	11888	11887	11881	11882	11884	11883	11893	11894	11896	11895	11897	11898	11900	11899	11892	11891	11905	11906	11908	11907	11902	11904	11903	11909	11910	11912	11911	11917	11918	11920	11919	11921	11922	11924	11923	11916	11915	11929	11930	11932	11931	11933	11934	11936	11935	11928	11927	11941	11942	11944	11943	11945	11946	11948	11947	11940	11939	11953	11954	11956	11955	11957	11958	11960	11959	11952	11951	11965	11966	11968	11967	11969	11970	11972	11971	11964	11963	11977	11978	11980	11979	11981	11982	11984	11983	11976	11975	11989	11990	11992	11991	11993	11994	11996	11995	11988	11987	12001	12002	12004	12003	12005	12006	12008	12007	12000	11999	12013	12014	12016	12015	12010	12021	12022	12024	12023	12017	12018	12020	12019	12025	12026	12029	12030	12032	12031	12027	12037	12038	12040	12039	12034	12036	12041	12042	12044	12043	12049	12050	12052	12051	12053	12054	12056	12055	12048	12047	12061	12062	12064	12063	12058	12069	12070	12072	12071	12065	12066	12068	12067	12073	12074	12076	12075	12077	12078	12085	12086	12088	12087	12081	12082	12084	12083	12093	12094	12096	12095	12097	12099	12092	12101	12102	12104	12103	5226	5227	5228	5229	5230	5231	5232	5233	5234	5235	5236	5237	5238	5239	5240	5241	5242	5243	5244	5245	5246	5247	5248	5249	5250	5251	5252	5253	5254	5255	5256	5257	5258	5259	5260	5261	5262	12109	12110	12112	12111	12113	12114	12117	12118	12120	12119	12115	12121	12125	12126	12128	12127	12133	12134	12136	12135	12129	12130	12132	12131	12141	12142	12144	12143	12145	12146	12148	12147	12140	12139	12153	12154	12156	12155	12150	12152	12151	12157	12158	12160	12159	5269	5270	5271	5272	5273	5274	5275	5276	5277	5278	5279	12161	12165	12166	12168	12167	12164	12163	12173	12174	12176	12175	12177	12178	12180	12179	12172	12171	12181	12182	12184	12183	5283	12185	12189	12190	12192	12191	12188	12187	12197	12198	12200	12199	12201	12202	12204	12203	12196	12195	12209	12210	12212	12211	12206	12208	12207	12213	12215	5323	5324	5325	12217	12218	12220	12219	12221	12222	12229	12230	12232	12231	12225	12226	12228	12227	12233	12234	12236	12235	12237	12238	12240	12239	5330	5331	5332	5333	5334	5335	5336	5337	5338	5339	5340	5341	5342	5343	5344	5345	5346	5347	5348	5349	5350	5351	5352	5353	5354	5355	5356	5357	5358	12241	12242	12244	12243	12245	12246	12248	12247	12249	12250	12253	12254	12256	12255	12251	12257	12258	12265	12266	12268	12267	12261	12262	12264	12263	12269	12273	12274	12276	12275	12281	12282	12284	12283	12277	12278	12280	12279	12289	12290	12292	12291	12293	12294	12296	12295	12288	12287	12297	12298	12300	12299	5366	5367	5368	5369	5370	5371	5372	5373	5374	5375	5376	5377	5378	5379	5380	5381	5382	5383	5384	5385	5386	5387	12305	12306	12308	12307	12309	12310	12312	12311	12313	12314	12317	12318	12320	12319	12315	12321	12322	12329	12330	12332	12331	12325	12326	12328	12327	12337	12338	12340	12339	12341	12342	12344	12343	12336	12345	12346	12348	12347	12353	12354	12356	12355	12357	12358	12360	12359	12352	12351	12365	12366	12368	12367	12362	12373	12374	12376	12375	12369	12370	12372	12371	12377	12378	12385	12386	12388	12387	12381	12382	12384	12383	12389	12390	12392	12393	12394	12396	12395	12397	12398	12400	12399	5433	5434	5435	5436	5437	5438	5439	5440	5441	5442	5443	5444	5445	5446	5447	5448	5449	5450	5451	5452	5453	5454	12401	12402	12404	12403	12405	12406	12413	12414	12416	12415	12409	12410	12412	12411	12417	12418	12425	12426	12428	12427	12421	12422	12424	12423	12429	12430	12437	12438	12440	12439	12433	12434	12436	12435	12441	12445	12446	12448	12447	12453	12454	12456	12455	12449	12450	12452	12451	12461	12462	12464	12463	12465	12466	12468	12467	12460	12459	12473	12474	12476	12475	12477	12478	12480	12479	12472	12471	12481	12482	12484	12483	12485	12486	12488	12487	5464	5465	5466	5467	5468	5469	5470	5471	5472	5473	5474	5475	5476	5477	5478	5479	5480	5481	5482	5483	5484	5485	5486	5487	5520	12492	12491	12493	12498	12500	12499	12505	12506	12508	12507	12501	12502	12504	12503	12513	12514	12516	12515	12517	12518	12520	12519	12521	12522	12524	12523	12511	12525	12529	12530	12532	12531	12537	12538	12540	12539	12533	12534	12536	12535	12545	12546	12548	12547	12549	12550	12552	12551	12544	12543	12553	12554	12556	12555	12557	12558	12560	12559	5528	12561	12562	12564	12563	12565	12569	12570	12572	12571	12568	12567	12577	12578	12580	12579	12581	12582	12584	12583	12576	12575	12589	12590	12592	12591	12593	12594	12596	12595	12601	12602	12604	12603	12597	12598	12600	12599	12605	12606	12613	12614	12616	12615	12609	12610	12612	12611	12617	12618	12625	12626	12628	12627	12621	12622	12624	12623	12629	12630	12632	12631	12633	12634	12636	12635	5537	5538	5539	5540	5541	5542	5543	5544	5545	5546	5547	5548	5549	5550	5551	12637	12638	12640	12639	12641	12642	12645	12646	12648	12647	12643	12649	12650	12657	12658	12660	12659	12653	12654	12656	12655	12665	12666	12668	12667	12669	12670	12672	12671	12664	12673	12674	12676	12675	12681	12682	12684	12683	12678	12680	12679	12685	12686	12688	12687	12689	12690	12692	12691	12693	12694	12696	12695	5560	5561	5562	5563	5564	5565	5566	5567	5568	5569	5570	5571	5572	5573	5574	5575	5576	5577	5578	5579	5580	5581	5582	5583	5584	5585	5586	5587	5618	5619	12697	12698	12701	12702	12704	12703	12699	12705	12709	12710	12712	12711	12717	12718	12720	12719	12713	12714	12716	12715	12725	12726	12728	12727	12722	12724	12723	12729	12730	12732	12731	12733	12734	12736	12735	5625	5626	5627	5628	5629	5630	12737	12738	12741	12742	12744	12743	12739	12749	12750	12752	12751	12746	12748	12753	12754	12756	12755	12757	12758	12760	12759	12761	12765	12766	12768	12767	12764	12763	12773	12774	12776	12775	12777	12778	12780	12779	12772	12771	12785	12786	12788	12787	12789	12790	12792	12791	12793	12794	12796	12795	12783	12797	12798	12800	12801	12802	12804	12803	12805	12806	12808	12807	5639	5640	5641	5642	5643	5644	5645	5646	5647	12809	12810	12812	12811	12813	12814	12817	12818	12820	12819	12815	12821	12822	12829	12830	12832	12831	12825	12826	12828	12827	12833	12834	12841	12842	12844	12843	12837	12838	12840	12839	12849	12850	12852	12851	12853	12854	12856	12855	12861	12862	12864	12863	12857	12858	12860	12859	12869	12870	12872	12871	12873	12874	12876	12875	12868	12877	12878	12880	12879	12881	12882	12884	12883	12885	12886	12888	12887	5656	5657	5658	5659	5660	5661	5662	5663	5664	5665	5666	5667	5668	5669	5670	5671	5672	5673	5674	5675	5676	5677	5678	5679	5680	5681	5682	5683	5684	5685	5686	5687	5717	5718	12889	12890	12892	12891	12897	12898	12900	12899	12901	12902	12904	12903	12896	12905	12906	12908	12907	12909	12910	12912	12911	5722	5723	5724	5725	5726	12913	12914	12916	12915	12917	12918	12920	12919	12921	12922	12925	12926	12928	12927	12923	12929	12930	12937	12938	12940	12939	12933	12934	12936	12935	12945	12946	12948	12947	12949	12950	12952	12951	12944	12953	12954	12956	12955	12957	12958	12960	12959	5733	5734	5735	12961	12962	12964	12963	12969	12970	12972	12971	12973	12974	12976	12975	12968	12967	12981	12982	12984	12983	12985	12986	12988	12987	12989	12990	12992	12991	12979	12993	12994	13001	13002	13004	13003	12997	12998	13000	12999	13005	13006	13013	13014	13016	13015	13009	13010	13012	13011	13017	13018	13025	13026	13028	13027	13021	13022	13024	13023	13029	13030	13037	13038	13040	13039	13033	13034	13036	13035	13041	13042	13049	13050	13052	13051	13045	13046	13048	13047	13053	13054	13056	13055	13057	13058	13065	13066	13068	13067	13061	13062	13064	13063	13069	13070	13077	13078	13080	13079	13073	13074	13076	13075	13081	13082	13089	13090	13092	13091	13085	13086	13088	13087	13097	13098	13100	13099	13101	13102	13104	13103	13096	13105	13106	13108	13107	13113	13114	13116	13115	13117	13118	13120	13119	13112	13111	13121	13122	13124	13123	13125	13126	13128	13127	13129	13130	13132	13131	13133	13134	13136	13135	5754	5755	5756	5757	5758	5759	5760	5761	5762	5763	5764	5765	5766	5767	5768	5769	5770	5771	5772	5773	5774	5775	5776	5777	5778	5779	5780	5781	5782	5783	5784	5785	5786	5787	5816	5817	5818	13137	13138	13141	13142	13144	13143	13139	13149	13150	13152	13151	13146	13148	13153	13154	13156	13155	5821	5822	13157	13158	13161	13162	13164	13163	13159	13165	13166	13173	13174	13176	13175	13169	13170	13172	13171	13177	13178	13185	13186	13188	13187	13181	13182	13184	13183	13189	13190	13197	13198	13200	13199	13193	13194	13196	13195	13205	13206	13208	13207	13209	13210	13212	13211	13204	13213	13214	13216	13215	13221	13222	13224	13223	13225	13226	13228	13227	13220	13219	13233	13234	13236	13235	13237	13238	13240	13239	13232	13231	13241	13242	13244	13243	13245	13246	13248	13247	5832	5833	5834	5835	5836	5837	13249	13250	13252	13251	13253	13254	13256	13255	13257	13258	13260	13259	13261	13262	13264	13263	13265	13266	13268	13267	13269	13273	13274	13276	13275	13272	13271	13281	13282	13284	13283	13285	13286	13288	13287	13280	13279	13293	13294	13296	13295	13290	13292	13291	13297	13298	13300	13299	13301	13302	13304	13303	13305	13306	13308	13307	5849	5850	5851	5852	5853	5854	5855	5856	5857	5858	5859	5860	5861	5862	5863	5864	5865	5866	5867	5868	5869	5870	5871	5872	5873	5874	5875	5876	5877	5878	5879	5880	5881	5882	13309	13310	13312	13311	13313	13314	13316	13315	5885	5886	13317	13318	13321	13322	13324	13323	13319	13325	13326	13333	13334	13336	13335	13329	13330	13332	13331	13337	13338	13345	13346	13348	13347	13341	13342	13344	13343	13353	13354	13356	13355	13357	13358	13360	13359	13352	13361	13362	13364	13363	13365	13366	13368	13367	13369	13370	13372	13371	13373	13374	13381	13382	13384	13383	13377	13378	13380	13379	13389	13390	13392	13391	13393	13394	13396	13395	13388	13397	13398	13400	13399	13401	13402	13404	13403	13405	13406	13408	13407	13409	13410	13412