<?xml version="1.0"?>
<VTKFile type="UnstructuredGrid" version="0.1" byte_order="BigEndian">
<UnstructuredGrid GhostLevel="0">
<Piece NumberOfPoints="8156" NumberOfCells="3312" ><Points>
<DataArray type="Float32" NumberOfComponents="3" format="ascii">
701000	6.204e+06	50	701000	6.203e+06	50	702000	6.204e+06	50	702000	6.203e+06	50	701000	6.204e+06	-50	701000	6.203e+06	-50	702000	6.204e+06	-50	702000	6.203e+06	-50	701000	6.202e+06	50	702000	6.202e+06	50	701000	6.202e+06	-50	702000	6.202e+06	-50	703000	6.203e+06	50	703000	6.202e+06	50	703000	6.203e+06	-50	703000	6.202e+06	-50	701000	6.201e+06	50	702000	6.201e+06	50	701000	6.201e+06	-50	702000	6.201e+06	-50	703000	6.201e+06	50	703000	6.201e+06	-50	704000	6.202e+06	50	704000	6.201e+06	50	704000	6.202e+06	-50	704000	6.201e+06	-50	702000	6.2e+06	50	703000	6.2e+06	50	702000	6.2e+06	-50	703000	6.2e+06	-50	704000	6.2e+06	50	704000	6.2e+06	-50	700000	6.2e+06	50	700000	6.199e+06	50	701000	6.2e+06	50	701000	6.199e+06	50	700000	6.2e+06	-50	700000	6.199e+06	-50	701000	6.2e+06	-50	701000	6.199e+06	-50	702000	6.199e+06	50	702000	6.199e+06	-50	703000	6.199e+06	50	703000	6.199e+06	-50	700000	6.198e+06	50	701000	6.198e+06	50	700000	6.198e+06	-50	701000	6.198e+06	-50	702000	6.198e+06	50	702000	6.198e+06	-50	703000	6.198e+06	50	703000	6.198e+06	-50	699000	6.198e+06	50	699000	6.197e+06	50	700000	6.197e+06	50	699000	6.198e+06	-50	699000	6.197e+06	-50	700000	6.197e+06	-50	701000	6.197e+06	50	701000	6.197e+06	-50	702000	6.197e+06	50	702000	6.197e+06	-50	703000	6.197e+06	50	703000	6.197e+06	-50	698000	6.197e+06	50	698000	6.196e+06	50	699000	6.196e+06	50	698000	6.197e+06	-50	698000	6.196e+06	-50	699000	6.196e+06	-50	700000	6.196e+06	50	700000	6.196e+06	-50	701000	6.196e+06	50	701000	6.196e+06	-50	702000	6.196e+06	50	702000	6.196e+06	-50	703000	6.196e+06	50	703000	6.196e+06	-50	695000	6.196e+06	50	695000	6.195e+06	50	696000	6.196e+06	50	696000	6.195e+06	50	695000	6.196e+06	-50	695000	6.195e+06	-50	696000	6.196e+06	-50	696000	6.195e+06	-50	697000	6.196e+06	50	697000	6.195e+06	50	697000	6.196e+06	-50	697000	6.195e+06	-50	698000	6.195e+06	50	698000	6.195e+06	-50	699000	6.195e+06	50	699000	6.195e+06	-50	700000	6.195e+06	50	700000	6.195e+06	-50	701000	6.195e+06	50	701000	6.195e+06	-50	702000	6.195e+06	50	702000	6.195e+06	-50	703000	6.195e+06	50	703000	6.195e+06	-50	693000	6.195e+06	50	693000	6.194e+06	50	694000	6.195e+06	50	694000	6.194e+06	50	693000	6.195e+06	-50	693000	6.194e+06	-50	694000	6.195e+06	-50	694000	6.194e+06	-50	695000	6.194e+06	50	695000	6.194e+06	-50	696000	6.194e+06	50	696000	6.194e+06	-50	697000	6.194e+06	50	697000	6.194e+06	-50	698000	6.194e+06	50	698000	6.194e+06	-50	699000	6.194e+06	50	699000	6.194e+06	-50	700000	6.194e+06	50	700000	6.194e+06	-50	701000	6.194e+06	50	701000	6.194e+06	-50	702000	6.194e+06	50	702000	6.194e+06	-50	703000	6.194e+06	50	703000	6.194e+06	-50	693000	6.193e+06	50	694000	6.193e+06	50	693000	6.193e+06	-50	694000	6.193e+06	-50	695000	6.193e+06	50	695000	6.193e+06	-50	696000	6.193e+06	50	696000	6.193e+06	-50	697000	6.193e+06	50	697000	6.193e+06	-50	698000	6.193e+06	50	698000	6.193e+06	-50	699000	6.193e+06	50	699000	6.193e+06	-50	700000	6.193e+06	50	700000	6.193e+06	-50	701000	6.193e+06	50	701000	6.193e+06	-50	702000	6.193e+06	50	702000	6.193e+06	-50	703000	6.193e+06	50	703000	6.193e+06	-50	691000	6.193e+06	50	691000	6.192e+06	50	692000	6.193e+06	50	692000	6.192e+06	50	691000	6.193e+06	-50	691000	6.192e+06	-50	692000	6.193e+06	-50	692000	6.192e+06	-50	693000	6.192e+06	50	693000	6.192e+06	-50	694000	6.192e+06	50	694000	6.192e+06	-50	695000	6.192e+06	50	695000	6.192e+06	-50	696000	6.192e+06	50	696000	6.192e+06	-50	697000	6.192e+06	50	697000	6.192e+06	-50	698000	6.192e+06	50	698000	6.192e+06	-50	699000	6.192e+06	50	699000	6.192e+06	-50	700000	6.192e+06	50	700000	6.192e+06	-50	701000	6.192e+06	50	701000	6.192e+06	-50	702000	6.192e+06	50	702000	6.192e+06	-50	691000	6.191e+06	50	692000	6.191e+06	50	691000	6.191e+06	-50	692000	6.191e+06	-50	693000	6.191e+06	50	693000	6.191e+06	-50	694000	6.191e+06	50	694000	6.191e+06	-50	695000	6.191e+06	50	695000	6.191e+06	-50	696000	6.191e+06	50	696000	6.191e+06	-50	697000	6.191e+06	50	697000	6.191e+06	-50	698000	6.191e+06	50	698000	6.191e+06	-50	699000	6.191e+06	50	699000	6.191e+06	-50	700000	6.191e+06	50	700000	6.191e+06	-50	701000	6.191e+06	50	701000	6.191e+06	-50	702000	6.191e+06	50	702000	6.191e+06	-50	686000	6.191e+06	50	686000	6.19e+06	50	687000	6.191e+06	50	687000	6.19e+06	50	686000	6.191e+06	-50	686000	6.19e+06	-50	687000	6.191e+06	-50	687000	6.19e+06	-50	688000	6.191e+06	50	688000	6.19e+06	50	688000	6.191e+06	-50	688000	6.19e+06	-50	689000	6.191e+06	50	689000	6.19e+06	50	689000	6.191e+06	-50	689000	6.19e+06	-50	690000	6.191e+06	50	690000	6.19e+06	50	690000	6.191e+06	-50	690000	6.19e+06	-50	691000	6.19e+06	50	691000	6.19e+06	-50	692000	6.19e+06	50	692000	6.19e+06	-50	693000	6.19e+06	50	693000	6.19e+06	-50	694000	6.19e+06	50	694000	6.19e+06	-50	695000	6.19e+06	50	695000	6.19e+06	-50	696000	6.19e+06	50	696000	6.19e+06	-50	697000	6.19e+06	50	697000	6.19e+06	-50	698000	6.19e+06	50	698000	6.19e+06	-50	699000	6.19e+06	50	699000	6.19e+06	-50	700000	6.19e+06	50	700000	6.19e+06	-50	701000	6.19e+06	50	701000	6.19e+06	-50	702000	6.19e+06	50	702000	6.19e+06	-50	686000	6.189e+06	50	687000	6.189e+06	50	686000	6.189e+06	-50	687000	6.189e+06	-50	688000	6.189e+06	50	688000	6.189e+06	-50	689000	6.189e+06	50	689000	6.189e+06	-50	690000	6.189e+06	50	690000	6.189e+06	-50	691000	6.189e+06	50	691000	6.189e+06	-50	692000	6.189e+06	50	692000	6.189e+06	-50	693000	6.189e+06	50	693000	6.189e+06	-50	694000	6.189e+06	50	694000	6.189e+06	-50	695000	6.189e+06	50	695000	6.189e+06	-50	696000	6.189e+06	50	696000	6.189e+06	-50	697000	6.189e+06	50	697000	6.189e+06	-50	698000	6.189e+06	50	698000	6.189e+06	-50	699000	6.189e+06	50	699000	6.189e+06	-50	700000	6.189e+06	50	700000	6.189e+06	-50	701000	6.189e+06	50	701000	6.189e+06	-50	702000	6.189e+06	50	702000	6.189e+06	-50	686000	6.188e+06	50	687000	6.188e+06	50	686000	6.188e+06	-50	687000	6.188e+06	-50	688000	6.188e+06	50	688000	6.188e+06	-50	689000	6.188e+06	50	689000	6.188e+06	-50	690000	6.188e+06	50	690000	6.188e+06	-50	691000	6.188e+06	50	691000	6.188e+06	-50	692000	6.188e+06	50	692000	6.188e+06	-50	693000	6.188e+06	50	693000	6.188e+06	-50	694000	6.188e+06	50	694000	6.188e+06	-50	695000	6.188e+06	50	695000	6.188e+06	-50	696000	6.188e+06	50	696000	6.188e+06	-50	697000	6.188e+06	50	697000	6.188e+06	-50	698000	6.188e+06	50	698000	6.188e+06	-50	699000	6.188e+06	50	699000	6.188e+06	-50	700000	6.188e+06	50	700000	6.188e+06	-50	701000	6.188e+06	50	701000	6.188e+06	-50	702000	6.188e+06	50	702000	6.188e+06	-50	688000	6.187e+06	50	689000	6.187e+06	50	688000	6.187e+06	-50	689000	6.187e+06	-50	690000	6.187e+06	50	690000	6.187e+06	-50	691000	6.187e+06	50	691000	6.187e+06	-50	692000	6.187e+06	50	692000	6.187e+06	-50	693000	6.187e+06	50	693000	6.187e+06	-50	694000	6.187e+06	50	694000	6.187e+06	-50	695000	6.187e+06	50	695000	6.187e+06	-50	696000	6.187e+06	50	696000	6.187e+06	-50	697000	6.187e+06	50	697000	6.187e+06	-50	698000	6.187e+06	50	698000	6.187e+06	-50	699000	6.187e+06	50	699000	6.187e+06	-50	700000	6.187e+06	50	700000	6.187e+06	-50	701000	6.187e+06	50	701000	6.187e+06	-50	702000	6.187e+06	50	702000	6.187e+06	-50	693000	6.186e+06	50	694000	6.186e+06	50	693000	6.186e+06	-50	694000	6.186e+06	-50	695000	6.186e+06	50	695000	6.186e+06	-50	696000	6.186e+06	50	696000	6.186e+06	-50	697000	6.186e+06	50	697000	6.186e+06	-50	698000	6.186e+06	50	698000	6.186e+06	-50	699000	6.186e+06	50	699000	6.186e+06	-50	700000	6.186e+06	50	700000	6.186e+06	-50	685000	6.186e+06	50	685000	6.185e+06	50	686000	6.186e+06	50	686000	6.185e+06	50	685000	6.186e+06	-50	685000	6.185e+06	-50	686000	6.186e+06	-50	686000	6.185e+06	-50	695000	6.185e+06	50	696000	6.185e+06	50	695000	6.185e+06	-50	696000	6.185e+06	-50	697000	6.185e+06	50	697000	6.185e+06	-50	698000	6.185e+06	50	698000	6.185e+06	-50	683000	6.185e+06	50	683000	6.184e+06	50	684000	6.185e+06	50	684000	6.184e+06	50	683000	6.185e+06	-50	683000	6.184e+06	-50	684000	6.185e+06	-50	684000	6.184e+06	-50	685000	6.184e+06	50	685000	6.184e+06	-50	686000	6.184e+06	50	686000	6.184e+06	-50	687000	6.185e+06	50	687000	6.184e+06	50	687000	6.185e+06	-50	687000	6.184e+06	-50	688000	6.185e+06	50	688000	6.184e+06	50	688000	6.185e+06	-50	688000	6.184e+06	-50	689000	6.185e+06	50	689000	6.184e+06	50	689000	6.185e+06	-50	689000	6.184e+06	-50	690000	6.185e+06	50	690000	6.184e+06	50	690000	6.185e+06	-50	690000	6.184e+06	-50	691000	6.185e+06	50	691000	6.184e+06	50	691000	6.185e+06	-50	691000	6.184e+06	-50	692000	6.185e+06	50	692000	6.184e+06	50	692000	6.185e+06	-50	692000	6.184e+06	-50	701000	6.185e+06	50	701000	6.184e+06	50	702000	6.185e+06	50	702000	6.184e+06	50	701000	6.185e+06	-50	701000	6.184e+06	-50	702000	6.185e+06	-50	702000	6.184e+06	-50	681000	6.184e+06	50	681000	6.183e+06	50	682000	6.184e+06	50	682000	6.183e+06	50	681000	6.184e+06	-50	681000	6.183e+06	-50	682000	6.184e+06	-50	682000	6.183e+06	-50	683000	6.183e+06	50	683000	6.183e+06	-50	684000	6.183e+06	50	684000	6.183e+06	-50	685000	6.183e+06	50	685000	6.183e+06	-50	686000	6.183e+06	50	686000	6.183e+06	-50	687000	6.183e+06	50	687000	6.183e+06	-50	688000	6.183e+06	50	688000	6.183e+06	-50	689000	6.183e+06	50	689000	6.183e+06	-50	690000	6.183e+06	50	690000	6.183e+06	-50	691000	6.183e+06	50	691000	6.183e+06	-50	692000	6.183e+06	50	692000	6.183e+06	-50	693000	6.184e+06	50	693000	6.183e+06	50	693000	6.184e+06	-50	693000	6.183e+06	-50	694000	6.184e+06	50	694000	6.183e+06	50	694000	6.184e+06	-50	694000	6.183e+06	-50	699000	6.184e+06	50	699000	6.183e+06	50	700000	6.184e+06	50	700000	6.183e+06	50	699000	6.184e+06	-50	699000	6.183e+06	-50	700000	6.184e+06	-50	700000	6.183e+06	-50	701000	6.183e+06	50	701000	6.183e+06	-50	702000	6.183e+06	50	702000	6.183e+06	-50	682000	6.182e+06	50	683000	6.182e+06	50	682000	6.182e+06	-50	683000	6.182e+06	-50	684000	6.182e+06	50	684000	6.182e+06	-50	685000	6.182e+06	50	685000	6.182e+06	-50	686000	6.182e+06	50	686000	6.182e+06	-50	687
[...]
<CellData Scalars="scalars">
<DataArray type="Int32" Name="nodeid" format="ascii">92	2751	2752	2754	2753	2755	2763	2766	2765	2759	2760	2762	2761	2773	142	143	2775	2776	2778	2777	2783	2784	2786	2785	2789	2791	2792	2794	2793	2781	192	193	194	2799	2803	2804	2806	2805	2807	2808	2810	2809	2801	243	244	2815	2819	2821	2823	2825	2817	291	292	293	2831	2832	2834	2833	2839	2840	2842	2841	2843	2847	2848	2850	2849	341	342	343	2855	2856	2858	2857	2863	2864	2866	2865	2867	2868	2870	2869	390	391	392	393	2871	2872	2874	2873	2879	2880	2881	2883	2885	439	440	441	442	443	2887	2891	2892	2894	2893	2895	2896	2898	2897	2889	2903	2905	486	487	488	489	490	491	492	493	2907	2911	2912	2914	2913	2915	2916	2918	2917	2909	534	535	536	537	538	539	540	541	542	543	2923	2927	2928	2930	2929	2931	2933	2925	584	585	586	587	588	589	590	591	592	593	2939	2943	2945	2947	2949	2941	632	633	634	635	636	637	638	639	640	641	642	2955	2956	2958	2957	2963	2964	2966	2965	2967	2969	2971	2972	2974	2973	682	683	684	685	686	687	688	689	690	691	692	2979	2980	2982	2981	2987	2988	2990	2989	2991	2992	2994	2993	727	728	729	730	731	732	733	734	735	736	737	738	739	740	741	742	2995	2996	2998	2997	3003	3004	3006	3005	3007	3008	3010	3009	777	778	779	780	781	782	783	784	785	786	787	788	789	790	791	792	3011	3012	3014	3013	3019	3020	3022	3021	3023	3024	3026	3025	827	828	829	830	831	832	833	834	835	836	837	838	839	840	841	842	3027	3028	3030	3029	3035	3036	3038	3037	3039	3040	3042	3041	3043	3044	3046	3045	3047	3048	3050	3049	879	880	881	882	883	884	885	886	887	888	889	890	891	892	3051	3052	3054	3053	3059	3060	3061	3063	3065	3068	3070	3069	3075	3076	3078	3077	3079	3080	3082	3081	3074	3073	3087	3088	3090	3089	3084	3086	3091	3092	3094	3093	3095	3096	3103	3104	3106	3105	3099	3100	3102	3101	3107	3108	3115	3116	3118	3117	3111	3112	3114	3113	3119	3120	3122	3123	3124	3126	3125	3127	3128	3130	3129	3131	3132	3134	3133	934	935	936	937	938	939	940	3135	3136	3138	3137	3139	3140	3142	3141	3143	3147	3148	3150	3149	3155	3156	3158	3157	3151	3152	3154	3153	3163	3165	3167	3169	976	3171	3172	3174	3173	3179	3180	3182	3181	3183	3184	3186	3185	3178	3177	3191	3192	3194	3193	3188	3190	3189	3199	3200	3202	3201	3203	3204	3206	3205	3198	3197	3211	3212	3214	3213	3215	3216	3218	3217	3210	3209	3223	3224	3226	3225	3227	3228	3230	3229	3222	3221	3235	3236	3238	3237	3239	3240	3242	3241	3243	3244	3246	3245	3233	3247	3248	3250	3249	3251	3252	3254	3253	986	987	988	3255	3256	3258	3257	3259	3260	3267	3268	3270	3269	3263	3264	3266	3265	3271	3275	3276	3278	3277	3283	3284	3286	3285	3279	3280	3282	3281	3291	3292	3294	3293	3295	3296	3298	3297	3290	3289	3303	3304	3306	3305	3300	3302	3301	3311	3313	3315	3317	1024	1025	1026	1027	1028	1029	1030	1031	1032	3319	3323	3324	3326	3325	3322	3321	3331	3332	3334	3333	3335	3336	3338	3337	3330	3329	3343	3344	3346	3345	3340	3351	3352	3354	3353	3347	3348	3350	3349	3355	3356	3358	3357	3359	3360	3362	3361	3363	3364	3371	3372	3374	3373	3367	3368	3370	3369	3379	3380	3382	3381	3383	3384	3386	3385	3378	3387	3388	3390	3389	3395	3396	3398	3397	3392	3394	3393	3399	3400	3402	3401	1042	3403	3404	3406	3405	3411	3413	3415	3417	1072	1073	1074	1075	1076	1077	1078	1079	1080	1081	1082	1083	1084	3419	3423	3424	3426	3425	3422	3421	3431	3432	3434	3433	3435	3436	3438	3437	3430	3429	3443	3444	3446	3445	3447	3448	3450	3449	3442	3441	3455	3456	3458	3457	3452	3454	3453	3459	3460	3462	3461	1090	1091	1092	3463	3464	3466	3465	3471	3473	3475	3477	1123	1124	1125	1126	1127	1128	1129	1130	1131	1132	1133	1134	1135	1136	1137	1138	1139	1140	1141	1142	3479	3480	3482	3481	3487	3489	3491	3493	1170	1171	1172	1173	1174	1175	1176	1177	1178	1179	1180	1181	1182	1183	1184	1185	1186	1187	1188	1189	1190	1191	1192	3495	3496	3498	3497	3503	3505	3507	3509	1218	1219	1220	1221	1222	1223	1224	1225	1226	1227	1228	1229	1230	1231	1232	1233	1234	3511	3512	3514	3513	3515	3516	3518	3517	1237	1238	1239	1240	3519	3520	3522	3521	3523	3524	3526	3525	3527	3528	3530	3529	3535	3536	3538	3537	3539	3540	3542	3541	1264	1265	1266	1267	1268	1269	1270	1271	1272	1273	1274	1275	1276	1277	1278	1279	1280	1281	3543	3544	3546	3545	3547	3548	3550	3549	3551	3552	3559	3560	3562	3561	3555	3556	3558	3557	3563	3567	3568	3570	3569	3575	3576	3578	3577	3571	3572	3574	3573	3583	3584	3586	3585	3587	3588	3590	3589	3591	3592	3594	3593	3581	3595	3596	3603	3604	3606	3605	3599	3600	3602	3601	3607	3608	3615	3616	3618	3617	3611	3612	3614	3613	3619	3620	3627	3628	3630	3629	3623	3624	3626	3625	3631	3632	3639	3640	3642	3641	3635	3636	3638	3637	3643	3647	3648	3650	3649	3655	3656	3658	3657	3651	3652	3654	3653	3663	3664	3666	3665	3660	3671	3672	3674	3673	3667	3668	3670	3669	3675	3676	3679	3680	3682	3681	3677	3687	3688	3690	3689	3691	3692	3694	3693	1312	3696	3698	3697	3699	3700	3702	3703	3704	3706	3705	3707	3708	3710	3709	3711	3712	3714	3713	1317	1318	1319	1320	1321	1322	1323	1324	1325	1326	1327	3715	3716	3718	3717	3719	3720	3722	3721	3723	3724	3726	3725	3727	3728	3735	3736	3738	3737	3731	3732	3734	3733	3739	3743	3744	3746	3745	3751	3752	3754	3753	3747	3748	3750	3749	3759	3760	3762	3761	3763	3764	3766	3765	3758	3757	3771	3772	3774	3773	3768	3770	3769	3775	3776	3778	3777	3779	3780	3782	3781	3783	3784	3786	3785	3787	3788	3790	3789	3791	3792	3794	3793	3795	3799	3800	3802	3801	3798	3797	3807	3808	3810	3809	3804	3806	3805	3811	3815	3816	3818	3817	3814	3813	3823	3824	3826	3825	3827	3828	3830	3829	3822	3821	3835	3837	3839	3841	3846	3851	3852	3854	3853	3849	3855	3856	3863	3864	3866	3865	3859	3860	3862	3861	3871	3872	3874	3873	3875	3876	3878	3877	3870	3879	3880	3882	3881	3887	3888	3890	3889	3891	3892	3894	3893	3886	3885	3899	3900	3902	3901	3903	3904	3906	3905	3907	3908	3910	3909	3897	3915	3916	3918	3917	3912	3923	3924	3926	3925	3919	3920	3922	3921	3927	3928	3935	3936	3938	3937	3931	3932	3934	3933	3939	3940	3942	3941	3943	3944	3946	3945	1370	1371	1372	1373	1374	3947	3948	3950	3949	3951	3952	3954	3953	3955	3956	3963	3964	3966	3965	3959	3960	3962	3961	3967	3971	3972	3974	3973	3979	3980	3982	3981	3975	3976	3978	3977	3987	3988	3990	3989	3991	3992	3994	3993	3986	3985	3999	4000	4002	4001	4003	4004	4006	4005	3998	3997	4011	4012	4014	4013	4008	4010	4009	4015	4016	4018	4017	1383	1384	1385	1386	1387	1388	1389	1390	1391	1392	4019	4020	4022	4021	4027	4029	4031	4033	1409	4035	4039	4040	4042	4041	4043	4044	4046	4045	4037	4051	4052	4054	4053	4055	4056	4058	4057	4050	4049	4059	4060	4062	4061	4063	4064	4066	4065	4067	4068	4070	4069	4071	4072	4079	4080	4082	4081	4075	4076	4078	4077	4087	4088	4090	4089	4091	4092	4094	4093	4086	4095	4096	4098	4097	4099	4103	4104	4106	4105	4102	4101	4111	4112	4114	4113	4115	4116	4118	4117	4110	4109	4123	4124	4126	4125	4120	4131	4132	4134	4133	4127	4128	4130	4129	4135	4136	4143	4144	4146	4145	4139	4140	4142	4141	4147	4148	4155	4156	4158	4157	4151	4152	4154	4153	4159	4160	4162	4163	4164	4166	4165	4167	4168	4175	4176	4178	4177	4171	4172	4174	4173	4179	4180	4187	4188	4190	4189	4183	4184	4186	4185	4195	4196	4198	4197	4199	4200	4202	4201	4194	4203	4204	4206	4205	4211	4212	4214	4213	4215	4216	4218	4217	4210	4209	4223	4224	4226	4225	4220	4222	4221	4227	4228	4230	4229	1429	1430	1431	1432	1433	1434	1435	1436	1437	1438	1439	1440	1441	1442	4231	4232	4235	4236	4238	4237	4233	4243	4245	4247	4252	4255	4256	4258	4257	4259	4260	4267	4268	4270	4269	4263	4264	4266	4265	4275	4276	4278	4277	4279	4280	4282	4281	4274	4283	4284	4286	4285	4287	4288	4291	4292	4294	4293	4289	4299	4300	4302	4301	4303	4304	4306	4305	4298	4307	4308	4310	4309	4315	4316	4318	4317	4319	4320	4322	4321	4314	4313	4327	4328	4330	4329	4331	4332	4334	4333	4326	4325	4339	4340	4342	4341	4336	4338	4337	4343	4344	4346	4345	1467	1468	4347	4348	4350	4349	4351	4352	4354	4353	4355	4356	4358	4357	4363	4364	4366	4365	4367	4368	4370	4369	4362	4361	4375	4376	4378	4377	4372	4374	4373	4379	4380	4382	4381	4383	4384	4386	4385	1476	1477	1478	1479	1480	1481	1482	1483	1484	1485	1486	1487	1488	1489	1490	4387	4388	4390	4389	4391	4392	4399	4400	4402	4401	4395	4396	4398	4397	4403	4407	4408	4410	4409	4411	4412	4414	4413	4405	4430	4429	4436	4438	4437	4439	4440	4442	4441	4434	4443	4444	4446	4445	4447	4448	4450	4449	4451	4455	4456	4458	4457	4463	4464	4466	4465	4459	4460	4462	4461	4471	4472	4474	4473	4475	4476	4478	4477	4470	4469	4479	4480	4482	4481	1513	1514	1515	1516	1517	1518	1519	1520	1521	1522	1523	1524	1525	1526	1527	1528	1529	1530	1531	1532	1533	1534	1535	1536	1537	1538	1539	4483	4484	4486	4485	4487	4491	4492	4494	4493	4499	4500	4502	4501	4495	4496	4498	4497	4507	4508	4510	4509	4511	4512	4514	4513	4515	4516	4518	4517	4505	4519	4523	4524	4526	4525	4527	4528	4530	4529	4521	4550	4551	4552	4554	4553	4541	4562	4561	4566	4565	4558	4567	4568	4570	4569	4576	4578	4577	4579	4580	4582	4581	4574	4573	4587	4588	4590	4589	4584	4591	4592	4594	4593	4585	4599	4600	4602	4601	4603	4604	4606	4605	4598	4607	4608	4610	4609	4615	4616	4618	4617	4612	4614	4613	1561	1562	1563	1564	1565	1566	1567	1568	1569	1570	1571	1572	1573	1574	1575	1576	1577	1578	1579	1580	1581	1582	4619	4620	4622	4621	4623	4624	4626	4625	4627	4628	4630	4629	1586	4631	4632	4634	4633	4635	4636	4643	4644	4646	4645	4639	4640	4642	4641	4647	4648	4650	4651	4652	4654	4653	4655	4659	4660	4662	4661	4667	4668	4670	4669	4663	4664	4666	4665	4675	4676	4678	4677	4672	4674	4673	4679	4683	4684	4686	4685	4687	4688	4690	4689	4681	4691	4695	4696	4698	4697	4703	4704	4706	4705	4699	4700	4702	4701	4711	4712	4714	4713	4715	4716	4718	4717	4723	4724	4726	4725	4727	4728	4730	4729	4722	4731	4732	4739	4740	4742	4741	4743	4744	4746	4745	4737	4747	4748	1610	1611	1612	1615	1616	1617	1618	1619	1620	1621	1622	1623	1624	1625	1626	1627	1628	1629	1630	4751	4752	4754	4753	4755	4756	4758	4757	4759	4763	4764	4766	4765	4771	4772	4774	4773	4767	4768	4770	4769	4779	4780	4782	4781	4783	4784	4786	4785	4778	4777	4791	4792	4794	4793	4795	4796	4798	4797	4799	4800	4802	4801	4789	4803	4804	4811	4812	4814	4813	4807	4808	4810	4809	4815	4819	4820	4822	4821	4827	4828	4830	4829	4823	4824	4826	4825	4835	4836	4838	4837	4832	4834	4833	4843	4844	4846	4845	4847	4848	4850	4849	4842	4841	4855	4856	4858	4857	4852	4854	4853	1641	4859	4860	4862	4861	4863	4867	4868	4870	4869	4871	4872	4874	4873	4865	1666	1667	1668	1669	1670	1671	1672	1673	1674	1675	1676	1677	1678	1679	4883	4884	4887	4888	4890	4889	4885	4891	4895	4896	4898	4897	4903	4904	4906	4905	4899	4900	4902	4901	4911	4912	4914	4913	4915	4916	4918	4917	4910	4909	4923	4924	4926	4925	4920	4922	4921	1684	4927	4928	4930	4929	4931	4935	4936	4938	4937	4934	4933	4943	4944	4946	4945	4940	4942	4941	1688	1689	1690	1691	1692	4947	4951	4952	4954	4953	4955	4956	4958	4957	4949	4963	4965	1718	1719	1720	1721	1722	1723	1724	1725	1726	1727	4967	4968	4970	4969	4971	4972	4979	4980	4982	4981	4975	4976	4978	4977	4987	4988	4990	4989	4991	4992	4994	4993	4999	5000	5002	5001	4995	4996	4998	4997	5007	5008	5010	5009	5004	5006	5005	1732	1733	1734	1735	1736	1737	1738	1739	1740	1741	1742	5011	5012	5014	5013	5019	5021	5023	5025	1769	1770	1771	1772	1773	1774	1775	5027	5028	5030	5029	5031	5032	5039	5040	5042	5041	5035	5036	5038	5037	5047	5048	5050	5049	5051	5052	5054	5053	5046	5055	5056	5058	5057	5063	5064	5066	5065	5067	5068	5070	5069	5062	5061	5075	5076	5078	5077	5079	5080	5082	5081	5074	5083	5084	5086	5085	5087	5088	5090	5089	1782	1783	1784	1785	1786	1787	1788	1789	1790	1791	1792	5091	5092	5094	5093	5099	5101	5103	5105	1819	1820	1821	1822	5107	5108	5110	5109	5111	5112	5114	5113	5115	5116	5123	5124	5126	5125	5119	5120	5122	5121	5131	5132	5134	5133	5135	5136	5138	5137	5143	5144	5146	5145	5139	5140	5142	5141	5151	5152	5154	5153	5148	5150	5149	5155	5156	5158	5157	5159	5163	5164	5166	5165	5171	5172	5174	5173	5167	5168	5170	5169	5179	5180	5182	5181	5176	5178	5177	1831	1832	1833	1834	1835	1836	1837	1838	1839	1840	1841	1842	5183	5184	5186	5185	5191	5192	5194	5193	5195	5196	5198	5197	5199	5200	5203	5204	5206	5205	5201	5207	5208	5215	5216	5218	5217	5211	5212	5214	5213	5219	5220	5227	5228	5230	5229	5223	5224	5226	5225	5231	5232	5239	5240	5242	5241	5235	5236	5238	5237	5243	5247	5248	5250	5249	5255	5256	5258	5257	5251	5252	5254	5253	5263	5264	5266	5265	5267	5268	5270	5269	5262	5261	5275	5276	5278	5277	5279	5280	5282	5281	5274	5273	5283	5284	5286	5285	5287	5288	5290	5289	5291	5292	5295	5296	5298	5297	5293	5303	5304	5306	5305	5307	5308	5310	5309	5302	5311	5312	5314	5313	5315	5316	5318	5317	1881	1882	1883	1884	1885	1886	1887	1888	1889	1890	1891	1892	5319	5320	5322	5321	5327	5328	5330	5329	5335	5337	5331	5332	5334	5333	5343	5347	5348	5350	5349	5346	5345	5351	5355	5356	5358	5357	5354	5353	5363	5364	5366	5365	5360	5362	5361	5367	5371	5372	5374	5373	5370	5369	5379	5380	5382	5381	5376	5378	5377	1924	1925	5383	5384	5387	5388	5390	5389	5385	5395	5396	5398	5397	5392	5403	5404	5406	5405	5399	5400	5402	5401	5411	5412	5414	5413	5415	5416	5418	5417	5410	5419	5420	5422	5421	5423	5424	5426	5425	1930	1931	1932	1933	1934	1935	1936	1937	1938	1939	1940	1941	1942	1943	5427	5431	5433	5435	5437	5429	1968	1969	1970	5443	5444	5446	5445	5451	5452	5454	5453	5455	5456	5458	5457	5463	5464	5466	5465	5459	5460	5462	5461	5471	5472	5474	5473	5468	5479	5480	5482	5481	5475	5476	5478	5477	5483	5484	5491	5492	5494	5493	5487	5488	5490	5489	5495	5496	5503	5504	5506	5505	5499	5500	5502	5501	5511	5512	5514	5513	5515	5516	5518	5517	5510	5519	5520	5522	5521	5523	5524	5526	5525	5527	5528	5530	5529	1979	1980	1981	1982	1983	1984	5531	5532	5534	5533	5535	5536	5538	5537	5539	5540	5542	5541	5543	5544	5546	5545	5547	5548	5555	5556	5558	5557	5551	5552	5554	5553	5559	5560	5567	5568	5570	5569	5563	5564	5566	5565	5571	5572	5574	5573	5575	5576	5578	5577	5579	5580	5587	5588	5590	5589	5583	5584	5586	5585	5591	5595	5596	5598	5597	5603	5604	5606	5605	5599	5600	5602	5601	2019	2020	2021	5611	5612	5614	5613	5615	5616	5618	5617	5623	5624	5626	5625	5620	5622	5621	5627	5628	5630	5629	5631	5632	5634	5633	2027	2028	2029	2030	2031	2032	5635	5636	5638	5637	5639	5640	5642	5641	5643	5647	5648	5650	5649	5651	5652	5654	5653	5645	5659	5660	5662	5661	5663	5664	5666	5665	5658	5657	5671	5672	5674	5673	5675	5676	5678	5677	5670	5669	5683	5684	5686	5685	5687	5688	5690	5689	5682	5681	5695	5696	5698	5697	5692	5694	5693	5699	5703	5704	5706	5705	5702	5701	5711	5712	5714	5713	5715	5716	5718	5717	5710	5709	5723	5724	5726	5725	5727	5728	5730	5729	5722	5721	5735	5736	5738	5737	5732	5734	5733	5739	5743	5744	5746	5745	5747	5748	5750	5749	5741	2069	2070	2071	2072	2073	2074	2075	2076	2077	2078	2079	2080	2081	2082	5755	5759	5760	5762	5761	5763	5764	5766	5765	5757	5771	5772	5774	5773	5775	5776	5778	5777	5770	5769	5783	5784	5786	5785	5787	5788	5790	5789	5782	5781	5791	5792	5794	5793	2087	2088	2089	2090	2091	2092	2093	5795	5799	5800	5802	5801	5803	5804	5806	5805	5797	2120	2121	2122	2123	2124	2125	2126	2127	2128	2129	2130	5811	5812	5814	5813	5815	5816	5823	5824	5826	5825	5819	5820	5822	5821	5831	5832	5834	5833	5835	5836	5838	5837	5830	5839	5840	5842	5841	5843	5844	5846	5845	2135	2136	2137	2138	2139	2140	2141	2142	2143	5847	5851	5852	5854	5853	5855	5856	5858	5857	5849	2171	2172	2173	2174	2175	2176	2177	2178	2179	5863	5864	5867	5868	5870	5869	5865	5871	5875	5876	5878	5877	5883	5884	5886	5885	5879	5880	5882	5881	5891	5892	5894	5893	5888	5890	5889	5895	5896	5898	5897	2184	2185	2186	2187	2188	2189	2190	2191	2192	2193	5899	5903	5904	5906	5905	5902	5901	5913	5915	5917	2221	2222	2223	2224	2225	2226	2227	2228	5919	5920	5923	5924	5926	5925	5921	5931	5932	5934	5933	5935	5936	5938	5937	5930	5939	5940	5942	5941	5943	5944	5946	5945	2232	2233	2234	2235	2236	2237	2238	2239	2240	2241	2242	2243	5947	5948	5950	5949	5955	5958	5957	5965	5959	5960	5962	5961	2271	2272	2273	2274	2275	2276	5971	5972	5974	5973	5975	5976	5983	5984	5986	5985	5979	5980	5982	5981	5991	5992	5994	5993	5995	5996	5998	5997	5990	5999	6001	6003	6004	6006	6005	2281	2282	2283	2284	2285	2286	2287	2288	2289	2290	2291	2292	2293	2294	6007	6011	6014	6013	6015	6016	6018	6017	6009	2320	2321	2322	2323	2324	2325	6023	6024	6026	6025	6027	6031	6032	6033	6035	6036	6047	6048	6050	6044	6046	6052	6054	6053	2330	2331	2332	2333	2334	2335	2336	2337	2338	2339	2370	2371	2372	2373	6063	6064	6066	6065	6067	6068	6075	6077	6071	6072	6074	6073	6083	6084	2382	2383	2384	2385	2386	2387	2418	2419	2420	6107	6108	6110	6109	6111	6112	6119	6120	6122	6121	6115	6116	6118	6117	6123	6124	6131	6132	6134	6133	6127	6128	6130	6129	6135	6139	6140	6142	6141	6147	6148	6150	6149	6143	6144	6146	6145	6155	6156	6158	6157	6152	6154	6153	2468	6163	6164	6166	6167	6168	6175	6176	6178	6177	6171	6172	6174	6173	6179	6180	6187	6188	6190	6183	6184	6186	6185	6195	6196	6198	6197	6192	6194	6199	6200	6202	6201	6203	6204	6206	6205	6207	6208	6210	6209	2475	2519	6211	6212	6214	6213	6215	6217	6219	6220	6222	6221	2523	2524	2525	2570	2571	2572	2573	2574	</DataArray>