<?xml version="1.0"?>
<VTKFile type="UnstructuredGrid" version="0.1" byte_order="BigEndian">
<UnstructuredGrid GhostLevel="0">
<Piece NumberOfPoints="1058" NumberOfCells="484" ><Points>
<DataArray type="Float32" NumberOfComponents="3" format="ascii">
660000	6.2e+06	1	660000	6.19773e+06	1	662273	6.2e+06	1	662273	6.19773e+06	1	660000	6.2e+06	0	660000	6.19773e+06	0	662273	6.2e+06	0	662273	6.19773e+06	0	664545	6.2e+06	1	664545	6.19773e+06	1	664545	6.2e+06	0	664545	6.19773e+06	0	666818	6.2e+06	1	666818	6.19773e+06	1	666818	6.2e+06	0	666818	6.19773e+06	0	669091	6.2e+06	1	669091	6.19773e+06	1	669091	6.2e+06	0	669091	6.19773e+06	0	671364	6.2e+06	1	671364	6.19773e+06	1	671364	6.2e+06	0	671364	6.19773e+06	0	673636	6.2e+06	1	673636	6.19773e+06	1	673636	6.2e+06	0	673636	6.19773e+06	0	675909	6.2e+06	1	675909	6.19773e+06	1	675909	6.2e+06	0	675909	6.19773e+06	0	678182	6.2e+06	1	678182	6.19773e+06	1	678182	6.2e+06	0	678182	6.19773e+06	0	680455	6.2e+06	1	680455	6.19773e+06	1	680455	6.2e+06	0	680455	6.19773e+06	0	682727	6.2e+06	1	682727	6.19773e+06	1	682727	6.2e+06	0	682727	6.19773e+06	0	685000	6.2e+06	1	685000	6.19773e+06	1	685000	6.2e+06	0	685000	6.19773e+06	0	687273	6.2e+06	1	687273	6.19773e+06	1	687273	6.2e+06	0	687273	6.19773e+06	0	689545	6.2e+06	1	689545	6.19773e+06	1	689545	6.2e+06	0	689545	6.19773e+06	0	691818	6.2e+06	1	691818	6.19773e+06	1	691818	6.2e+06	0	691818	6.19773e+06	0	694091	6.2e+06	1	694091	6.19773e+06	1	694091	6.2e+06	0	694091	6.19773e+06	0	696364	6.2e+06	1	696364	6.19773e+06	1	696364	6.2e+06	0	696364	6.19773e+06	0	698636	6.2e+06	1	698636	6.19773e+06	1	698636	6.2e+06	0	698636	6.19773e+06	0	700909	6.2e+06	1	700909	6.19773e+06	1	700909	6.2e+06	0	700909	6.19773e+06	0	703182	6.2e+06	1	703182	6.19773e+06	1	703182	6.2e+06	0	703182	6.19773e+06	0	705455	6.2e+06	1	705455	6.19773e+06	1	705455	6.2e+06	0	705455	6.19773e+06	0	707727	6.2e+06	1	707727	6.19773e+06	1	707727	6.2e+06	0	707727	6.19773e+06	0	710000	6.2e+06	1	710000	6.19773e+06	1	710000	6.2e+06	0	710000	6.19773e+06	0	660000	6.19545e+06	1	662273	6.19545e+06	1	660000	6.19545e+06	0	662273	6.19545e+06	0	664545	6.19545e+06	1	664545	6.19545e+06	0	666818	6.19545e+06	1	666818	6.19545e+06	0	669091	6.19545e+06	1	669091	6.19545e+06	0	671364	6.19545e+06	1	671364	6.19545e+06	0	673636	6.19545e+06	1	673636	6.19545e+06	0	675909	6.19545e+06	1	675909	6.19545e+06	0	678182	6.19545e+06	1	678182	6.19545e+06	0	680455	6.19545e+06	1	680455	6.19545e+06	0	682727	6.19545e+06	1	682727	6.19545e+06	0	685000	6.19545e+06	1	685000	6.19545e+06	0	687273	6.19545e+06	1	687273	6.19545e+06	0	689545	6.19545e+06	1	689545	6.19545e+06	0	691818	6.19545e+06	1	691818	6.19545e+06	0	694091	6.19545e+06	1	694091	6.19545e+06	0	696364	6.19545e+06	1	696364	6.19545e+06	0	698636	6.19545e+06	1	698636	6.19545e+06	0	700909	6.19545e+06	1	700909	6.19545e+06	0	703182	6.19545e+06	1	703182	6.19545e+06	0	705455	6.19545e+06	1	705455	6.19545e+06	0	707727	6.19545e+06	1	707727	6.19545e+06	0	710000	6.19545e+06	1	710000	6.19545e+06	0	660000	6.19318e+06	1	662273	6.19318e+06	1	660000	6.19318e+06	0	662273	6.19318e+06	0	664545	6.19318e+06	1	664545	6.19318e+06	0	666818	6.19318e+06	1	666818	6.19318e+06	0	669091	6.19318e+06	1	669091	6.19318e+06	0	671364	6.19318e+06	1	671364	6.19318e+06	0	673636	6.19318e+06	1	673636	6.19318e+06	0	675909	6.19318e+06	1	675909	6.19318e+06	0	678182	6.19318e+06	1	678182	6.19318e+06	0	680455	6.19318e+06	1	680455	6.19318e+06	0	682727	6.19318e+06	1	682727	6.19318e+06	0	685000	6.19318e+06	1	685000	6.19318e+06	0	687273	6.19318e+06	1	687273	6.19318e+06	0	689545	6.19318e+06	1	689545	6.19318e+06	0	691818	6.19318e+06	1	691818	6.19318e+06	0	694091	6.19318e+06	1	694091	6.19318e+06	0	696364	6.19318e+06	1	696364	6.19318e+06	0	698636	6.19318e+06	1	698636	6.19318e+06	0	700909	6.19318e+06	1	700909	6.19318e+06	0	703182	6.19318e+06	1	703182	6.19318e+06	0	705455	6.19318e+06	1	705455	6.19318e+06	0	707727	6.19318e+06	1	707727	6.19318e+06	0	710000	6.19318e+06	1	710000	6.19318e+06	0	660000	6.19091e+06	1	662273	6.19091e+06	1	660000	6.19091e+06	0	662273	6.19091e+06	0	664545	6.19091e+06	1	664545	6.19091e+06	0	666818	6.19091e+06	1	666818	6.19091e+06	0	669091	6.19091e+06	1	669091	6.19091e+06	0	671364	6.19091e+06	1	671364	6.19091e+06	0	673636	6.19091e+06	1	673636	6.19091e+06	0	675909	6.19091e+06	1	675909	6.19091e+06	0	678182	6.19091e+06	1	678182	6.19091e+06	0	680455	6.19091e+06	1	680455	6.19091e+06	0	682727	6.19091e+06	1	682727	6.19091e+06	0	685000	6.19091e+06	1	685000	6.19091e+06	0	687273	6.19091e+06	1	687273	6.19091e+06	0	689545	6.19091e+06	1	689545	6.19091e+06	0	691818	6.19091e+06	1	691818	6.19091e+06	0	694091	6.19091e+06	1	694091	6.19091e+06	0	696364	6.19091e+06	1	696364	6.19091e+06	0	698636	6.19091e+06	1	698636	6.19091e+06	0	700909	6.19091e+06	1	700909	6.19091e+06	0	703182	6.19091e+06	1	703182	6.19091e+06	0	705455	6.19091e+06	1	705455	6.19091e+06	0	707727	6.19091e+06	1	707727	6.19091e+06	0	710000	6.19091e+06	1	710000	6.19091e+06	0	660000	6.18864e+06	1	662273	6.18864e+06	1	660000	6.18864e+06	0	662273	6.18864e+06	0	664545	6.18864e+06	1	664545	6.18864e+06	0	666818	6.18864e+06	1	666818	6.18864e+06	0	669091	6.18864e+06	1	669091	6.18864e+06	0	671364	6.18864e+06	1	671364	6.18864e+06	0	673636	6.18864e+06	1	673636	6.18864e+06	0	675909	6.18864e+06	1	675909	6.18864e+06	0	678182	6.18864e+06	1	678182	6.18864e+06	0	680455	6.18864e+06	1	680455	6.18864e+06	0	682727	6.18864e+06	1	682727	6.18864e+06	0	685000	6.18864e+06	1	685000	6.18864e+06	0	687273	6.18864e+06	1	687273	6.18864e+06	0	689545	6.18864e+06	1	689545	6.18864e+06	0	691818	6.18864e+06	1	691818	6.18864e+06	0	694091	6.18864e+06	1	694091	6.18864e+06	0	696364	6.18864e+06	1	696364	6.18864e+06	0	698636	6.18864e+06	1	698636	6.18864e+06	0	700909	6.18864e+06	1	700909	6.18864e+06	0	703182	6.18864e+06	1	703182	6.18864e+06	0	705455	6.18864e+06	1	705455	6.18864e+06	0	707727	6.18864e+06	1	707727	6.18864e+06	0	710000	6.18864e+06	1	710000	6.18864e+06	0	660000	6.18636e+06	1	662273	6.18636e+06	1	660000	6.18636e+06	0	662273	6.18636e+06	0	664545	6.18636e+06	1	664545	6.18636e+06	0	666818	6.18636e+06	1	666818	6.18636e+06	0	669091	6.18636e+06	1	669091	6.18636e+06	0	671364	6.18636e+06	1	671364	6.18636e+06	0	673636	6.18636e+06	1	673636	6.18636e+06	0	675909	6.18636e+06	1	675909	6.18636e+06	0	678182	6.18636e+06	1	678182	6.18636e+06	0	680455	6.18636e+06	1	680455	6.18636e+06	0	682727	6.18636e+06	1	682727	6.18636e+06	0	685000	6.18636e+06	1	685000	6.18636e+06	0	687273	6.18636e+06	1	687273	6.18636e+06	0	689545	6.18636e+06	1	689545	6.18636e+06	0	691818	6.18636e+06	1	691818	6.18636e+06	0	694091	6.18636e+06	1	694091	6.18636e+06	0	696364	6.18636e+06	1	696364	6.18636e+06	0	698636	6.18636e+06	1	698636	6.18636e+06	0	700909	6.18636e+06	1	700909	6.18636e+06	0	703182	6.18636e+06	1	703182	6.18636e+06	0	705455	6.18636e+06	1	705455	6.18636e+06	0	707727	6.18636e+06	1	707727	6.18636e+06	0	710000	6.18636e+06	1	710000	6.18636e+06	0	660000	6.18409e+06	1	662273	6.18409e+06	1	660000	6.18409e+06	0	662273	6.18409e+06	0	664545	6.18409e+06	1	664545	6.18409e+06	0	666818	6.18409e+06	1	666818	6.18409e+06	0	669091	6.18409e+06	1	669091	6.18409e+06	0	671364	6.18409e+06	1	671364	6.18409e+06	0	673636	6.18409e+06	1	673636	6.18409e+06	0	675909	6.18409e+06	1	675909	6.18409e+06	0	678182	6.18409e+06	1	678182	6.18409e+06	0	680455	6.18409e+06	1	680455	6.18409e+06	0	682727	6.18409e+06	1	682727	6.18409e+06	0	685000	6.18409e+06	1	685000	6.18409e+06	0	687273	6.18409e+06	1	687273	6.18409e+06	0	689545	6.18409e+06	1	689545	6.18409e+06	0	691818	6.18409e+06	1	691818	6.18409e+06	0	694091	6.18409e+06	1	694091	6.18409e+06	0	696364	6.18409e+06	1	696364	6.18409e+06	0	698636	6.18409e+06	1	698636	6.18409e+06	0	700909	6.18409e+06	1	700909	6.18409e+06	0	703182	6.18409e+06	1	703182	6.18409e+06	0	705455	6.18409e+06	1	705455	6.18409e+06	0	707727	6.18409e+06	1	707727	6.18409e+06	0	710000	6.18409e+06	1	710000	6.18409e+06	0	660000	6.18182e+06	1	662273	6.18182e+06	1	660000	6.18182e+06	0	662273	6.18182e+06	0	664545	6.18182e+06	1	664545	6.18182e+06	0	666818	6.18182e+06	1	666818	6.18182e+06	0	669091	6.18182e+06	1	669091	6.18182e+06	0	671364	6.18182e+06	1	671364	6.18182e+06	0	673636	6.18182e+06	1	673636	6.18182e+06	0	675909	6.18182e+06	1	675909	6.18182e+06	0	678182	6.18182e+06	1	678182	6.18182e+06	0	680455	6.18182e+06	1	680455	6.18182e+06	0	682727	6.18182e+06	1	682727	6.18182e+06	0	685000	6.18182e+06	1	685000	6.18182e+06	0	687273	6.18182e+06	1	687273	6.18182e+06	0	689545	6.18182e+06	1	689545	6.18182e+06	0	691818	6.18182e+06	1	691818	6.18182e+06	0	694091	6.18182e+06	1	694091	6.18182e+06	0	696364	6.18182e+06	1	696364	6.18182e+06	0	698636	6.18182e+06	1	698636	6.18182e+06	0	700909	6.18182e+06	1	700909	6.18182e+06	0	703182	6.18182e+06	1	703182	6.18182e+06	0	705455	6.18182e+06	1	705455	6.18182e+06	0	707727	6.18182e+06	1	707727	6.18182e+06	0	710000	6.18182e+06	1	710000	6.18182e+06	0	660000	6.17955e+06	1	662273	6.17955e+06	1	660000	6.17955e+06	0	662273	6.17955e+06	0	664545	6.17955e+06	1	664545	6.17955e+06	0	666818	6.17955e+06	1	666818	6.17955e+06	0	669091	6.17955e+06	1	669091	6.17955e+06	0	671364	6.17955e+06	1	671364	6.17955e+06	0	673636	6.17955e+06	1	673636	6.17955e+06	0	675909	6.17955e+06	1	675909	6.17955e+06	0	678182	6.17955e+06	1	678182	6.17955e+06	0	680455	6.17955e+06	1	680455	6.17955e+06	0	682727	6.17955e+06	1	682727	6.17955e+06	0	685000	6.17955e+06	1	685000	6.17955e+06	0	687273	6.17955e+06	1	687273	6.17955e+06	0	689545	6.17955e+06	1	689545	6.17955e+06	0	691818	6.17955e+06	1	691818	6.17955e+06	0	694091	6.17955e+06	1	694091	6.17955e+06	0	696364	6.17955e+06	1	696364	6.17955e+06	0	698636	6.17955e+06	1	698636	6.17955e+06	0	700909	6.17955e+06	1	700909	6.17955e+06	0	703182	6.17955e+06	1	703182	6.17955e+06	0	705455	6.17955e+06	1	705455	6.17955e+06	0	707727	6.17955e+06	1	707727	6.17955e+06	0	710000	6.17955e+06	1	710000	6.17955e+06	0	660000	6.17727e+06	1	662273	6.17727e+06	1	660000	6.17727e+06	0	662273	6.17727e+06	0	664545	6.17727e+06	1	664545	6.17727e+06	0	666818	6.17727e+06	1	666818	6.17727e+06	0	669091	6.17727e+06	1	669091	6.17727e+06	0	671364	6.17727e+06	1	671364	6.17727e+06	0	673636	6.17727e+06	1	
[...]
<CellData Scalars="scalars">
<DataArray type="Int32" Name="nodeid" format="ascii">1	2	3	4	5	6	7	8	9	10	11	12	13	14	15	16	17	18	19	20	21	22	23	24	25	26	27	28	29	30	31	32	33	34	35	36	37	38	39	40	41	42	43	44	45	46	47	48	49	50	51	52	53	54	55	56	57	58	59	60	61	62	63	64	65	66	67	68	69	70	71	72	73	74	75	76	77	78	79	80	81	82	83	84	85	86	87	88	89	90	91	92	93	94	95	96	97	98	99	100	101	102	103	104	105	106	107	108	109	110	111	112	113	114	115	116	117	118	119	120	121	122	123	124	125	126	127	128	129	130	131	132	133	134	135	136	137	138	139	140	141	142	143	144	145	146	147	148	149	150	151	152	153	154	155	156	157	158	159	160	161	162	163	164	165	166	167	168	169	170	171	172	173	174	175	176	177	178	179	180	181	182	183	184	185	186	187	188	189	190	191	192	193	194	195	196	197	198	199	200	201	202	203	204	205	206	207	208	209	210	211	212	213	214	215	216	217	218	219	220	221	222	223	224	225	226	227	228	229	230	231	232	233	234	235	236	237	238	239	240	241	242	243	244	245	246	247	248	249	250	251	252	253	254	255	256	257	258	259	260	261	262	263	264	265	266	267	268	269	270	271	272	273	274	275	276	277	278	279	280	281	282	283	284	285	286	287	288	289	290	291	292	293	294	295	296	297	298	299	300	301	302	303	304	305	306	307	308	309	310	311	312	313	314	315	316	317	318	319	320	321	322	323	324	325	326	327	328	329	330	331	332	333	334	335	336	337	338	339	340	341	342	343	344	345	346	347	348	349	350	351	352	353	354	355	356	357	358	359	360	361	362	363	364	365	366	367	368	369	370	371	372	373	374	375	376	377	378	379	380	381	382	383	384	385	386	387	388	389	390	391	392	393	394	395	396	397	398	399	400	401	402	403	404	405	406	407	408	409	410	411	412	413	414	415	416	417	418	419	420	421	422	423	424	425	426	427	428	429	430	431	432	433	434	435	436	437	438	439	440	441	442	443	444	445	446	447	448	449	450	451	452	453	454	455	456	457	458	459	460	461	462	463	464	465	466	467	468	469	470	471	472	473	474	475	476	477	478	479	480	481	482	483	484	</DataArray>
<DataArray type="Int32" Name="nodenumber" format="ascii">1	2	3	4	5	6	7	8	9	10	11	12	13	14	15	16	17	18	19	20	21	22	23	24	25	26	27	28	29	30	31	32	33	34	35	36	37	38	39	40	41	42	43	44	45	46	47	48	49	50	51	52	53	54	55	56	57	58	59	60	61	62	63	64	65	66	67	68	69	70	71	72	73	74	75	76	77	78	79	80	81	82	83	84	85	86	87	88	89	90	91	92	93	94	95	96	97	98	99	100	101	102	103	104	105	106	107	108	109	110	111	112	113	114	115	116	117	118	119	120	121	122	123	124	125	126	127	128	129	130	131	132	133	134	135	136	137	138	139	140	141	142	143	144	145	146	147	148	149	150	151	152	153	154	155	156	157	158	159	160	161	162	163	164	165	166	167	168	169	170	171	172	173	174	175	176	177	178	179	180	181	182	183	184	185	186	187	188	189	190	191	192	193	194	195	196	197	198	199	200	201	202	203	204	205	206	207	208	209	210	211	212	213	214	215	216	217	218	219	220	221	222	223	224	225	226	227	228	229	230	231	232	233	234	235	236	237	238	239	240	241	242	243	244	245	246	247	248	249	250	251	252	253	254	255	256	257	258	259	260	261	262	263	264	265	266	267	268	269	270	271	272	273	274	275	276	277	278	279	280	281	282	283	284	285	286	287	288	289	290	291	292	293	294	295	296	297	298	299	300	301	302	303	304	305	306	307	308	309	310	311	312	313	314	315	316	317	318	319	320	321	322	323	324	325	326	327	328	329	330	331	332	333	334	335	336	337	338	339	340	341	342	343	344	345	346	347	348	349	350	351	352	353	354	355	356	357	358	359	360	361	362	363	364	365	366	367	368	369	370	371	372	373	374	375	376	377	378	379	380	381	382	383	384	385	386	387	388	389	390	391	392	393	394	395	396	397	398	399	400	401	402	403	404	405	406	407	408	409	410	411	412	413	414	415	416	417	418	419	420	421	422	423	424	425	426	427	428	429	430	431	432	433	434	435	436	437	438	439	440	441	442	443	444	445	446	447	448	449	450	451	452	453	454	455	456	457	458	459	460	461	462	463	464	465	466	467	468	469	470	471	472	473	474	475	476	477	478	479	480	481	482	483	484	</DataArray>
<DataArray type="Int32" Name="layer" format="ascii">1	1	1	1	1	1	1	1	1	1	1	1	1	1	1	1	1	1	1	1	1	1	1	1	1	1	1	1	1	1	1	1	1	1	1	1	1	1	1	1	1	1	1	1	1	1	1	1	1	1	1	1	1	1	1	1	1	1	1	1	1	1	1	1	1	1	1	1	1	1	1	1	1	1	1	1	1	1	1	1	1	1	1	1	1	1	1	1	1	1	1	1	1	1	1	1	1	1	1	1	1	1	1	1	1	1	1	1	1	1	1	1	1	1	1	1	1	1	1	1	1	1	1	1	1	1	1	1	1	1	1	1	1	1	1	1	1	1	1	1	1	1	1	1	1	1	1	1	1	1	1	1	1	1	1	1	1	1	1	1	1	1	1	1	1	1	1	1	1	1	1	1	1	1	1	1	1	1	1	1	1	1	1	1	1	1	1	1	1	1	1	1	1	1	1	1	1	1	1	1	1	1	1	1	1	1	1	1	1	1	1	1	1	1	1	1	1	1	1	1	1	1	1	1	1	1	1	1	1	1	1	1	1	1	1	1	1	1	1	1	1	1	1	1	1	1	1	1	1	1	1	1	1	1	1	1	1	1	1	1	1	1	1	1	1	1	1	1	1	1	1	1	1	1	1	1	1	1	1	1	1	1	1	1	1	1	1	1	1	1	1	1	1	1	1	1	1	1	1	1	1	1	1	1	1	1	1	1	1	1	1	1	1	1	1	1	1	1	1	1	1	1	1	1	1	1	1	1	1	1	1	1	1	1	1	1	1	1	1	1	1	1	1	1	1	1	1	1	1	1	1	1	1	1	1	1	1	1	1	1	1	1	1	1	1	1	1	1	1	1	1	1	1	1	1	1	1	1	1	1	1	1	1	1	1	1	1	1	1	1	1	1	1	1	1	1	1	1	1	1	1	1	1	1	1	1	1	1	1	1	1	1	1	1	1	1	1	1	1	1	1	1	1	1	1	1	1	1	1	1	1	1	1	1	1	1	1	1	1	1	1	1	1	1	1	1	1	1	1	1	1	1	1	1	1	1	1	1	1	1	1	1	1	1	1	1	1	1	1	1	1	1	1	1	1	1	1	1	1	1	1	1	1	1	</DataArray>
<DataArray type="Int32" Name="row" format="ascii">1	1	1	1	1	1	1	1	1	1	1	1	1	1	1	1	1	1	1	1	1	1	2	2	2	2	2	2	2	2	2	2	2	2	2	2	2	2	2	2	2	2	2	2	3	3	3	3	3	3	3	3	3	3	3	3	3	3	3	3	3	3	3	3	3	3	4	4	4	4	4	4	4	4	4	4	4	4	4	4	4	4	4	4	4	4	4	4	5	5	5	5	5	5	5	5	5	5	5	5	5	5	5	5	5	5	5	5	5	5	6	6	6	6	6	6	6	6	6	6	6	6	6	6	6	6	6	6	6	6	6	6	7	7	7	7	7	7	7	7	7	7	7	7	7	7	7	7	7	7	7	7	7	7	8	8	8	8	8	8	8	8	8	8	8	8	8	8	8	8	8	8	8	8	8	8	9	9	9	9	9	9	9	9	9	9	9	9	9	9	9	9	9	9	9	9	9	9	10	10	10	10	10	10	10	10	10	10	10	10	10	10	10	10	10	10	10	10	10	10	11	11	11	11	11	11	11	11	11	11	11	11	11	11	11	11	11	11	11	11	11	11	12	12	12	12	12	12	12	12	12	12	12	12	12	12	12	12	12	12	12	12	12	12	13	13	13	13	13	13	13	13	13	13	13	13	13	13	13	13	13	13	13	13	13	13	14	14	14	14	14	14	14	14	14	14	14	14	14	14	14	14	14	14	14	14	14	14	15	15	15	15	15	15	15	15	15	15	15	15	15	15	15	15	15	15	15	15	15	15	16	16	16	16	16	16	16	16	16	16	16	16	16	16	16	16	16	16	16	16	16	16	17	17	17	17	17	17	17	17	17	17	17	17	17	17	17	17	17	17	17	17	17	17	18	18	18	18	18	18	18	18	18	18	18	18	18	18	18	18	18	18	18	18	18	18	19	19	19	19	19	19	19	19	19	19	19	19	19	19	19	19	19	19	19	19	19	19	20	20	20	20	20	20	20	20	20	20	20	20	20	20	20	20	20	20	20	20	20	20	21	21	21	21	21	21	21	21	21	21	21	21	21	21	21	21	21	21	21	21	21	21	22	22	22	22	22	22	22	22	22	22	22	22	22	22	22	22	22	22	22	22	22	22	</DataArray>
<DataArray type="Int32" Name="col" format="ascii">1	2	3	4	5	6	7	8	9	10	11	12	13	14	15	16	17	18	19	20	21	22	1	2	3	4	5	6	7	8	9	10	11	12	13	14	15	16	17	18	19	20	21	22	1	2	3	4	5	6	7	8	9	10	11	12	13	14	15	16	17	18	19	20	21	22	1	2	3	4	5	6	7	8	9	10	11	12	13	14	15	16	17	18	19	20	21	22	1	2	3	4	5	6	7	8	9	10	11	12	13	14	15	16	17	18	19	20	21	22	1	2	3	4	5	6	7	8	9	10	11	12	13	14	15	16	17	18	19	20	21	22	1	2	3	4	5	6	7	8	9	10	11	12	13	14	15	16	17	18	19	20	21	22	1	2	3	4	5	6	7	8	9	10	11	12	13	14	15	16	17	18	19	20	21	22	1	2	3	4	5	6	7	8	9	10	11	12	13	14	15	16	17	18	19	20	21	22	1	2	3	4	5	6	7	8	9	10	11	12	13	14	15	16	17	18	19	20	21	22	1	2	3	4	5	6	7	8	9	10	11	12	13	14	15	16	17	18	19	20	21	22	1	2	3	4	5	6	7	8	9	10	11	12	13	14	15	16	17	18	19	20	21	22	1	2	3	4	5	6	7	8	9	10	11	12	13	14	15	16	17	18	19	20	21	22	1	2	3	4	5	6	7	8	9	10	11	12	13	14	15	16	17	18	19	20	21	22	1	2	3	4	5	6	7	8	9	10	11	12	13	14	15	16	17	18	19	20	21	22	1	2	3	4	5	6	7	8	9	10	11	12	13	14	15	16	17	18	19	20	21	22	1	2	3	4	5	6	7	8	9	10	11	12	13	14	15	16	17	18	19	20	21	22	1	2	3	4	5	6	7	8	9	10	11	12	13	14	15	16	17	18	19	20	21	22	1	2	3	4	5	6	7	8	9	10	11	12	13	14	15	16	17	18	19	20	21	22	1	2	3	4	5	6	7	8	9	10	11	12	13	14	15	16	17	18	19	20	21	22	1	2	3	4	5	6	7	8	9	10	11	12	13	14	15	16	17	18	19	20	21	22	1	2	3	4	5	6	7	8	9	10	11	12	13	14	15	16	17	18	19	20	21	22	</DataArray>
<DataArray type="Int32" Name="vtkid" format="ascii">0	1	2	3	4	5	6	7	8	9	10	11	12	13	14	15	16	17	18	19	20	21	22	23	24	25	26	27	28	29	30	31	32	33	34	35	36	37	38	39	40	41	42	43	44	45	46	47	48	49	50	51	52	53	54	55	56	57	58	59	60	61	62	63	64	65	66	67	68	69	70	71	72	73	74	75	76	77	78	79	80	81	82	83	84	85	86	87	88	89	90	91	92	93	94	95	96	97	98	99	100	101	102	103	104	105	106	107	108	109	110	111	112	113	114	115	116	117	118	119	120	121	122	123	124	125	126	127	128	129	130	131	132	133	134	135	136	137	138	139	140	141	142	143	144	145	146	147	148	149	150	151	152	153	154	155	156	157	158	159	160	161	162	163	164	165	166	167	168	169	170	171	172	173	174	175	176	177	178	179	180	181	182	183	184	185	186	187	188	189	190	191	192	193	194	195	196	197	198	199	200	201	202	203	204	205	206	207	208	209	210	211	212	213	214	215	216	217	218	219	220	221	222	223	224	225	226	227	228	229	230	231	232	233	234	235	236	237	238	239	240	241	242	243	244	245	246	247	248	249	250	251	252	253	254	255	256	257	258	259	260	261	262	263	264	265	266	267	268	269	270	271	272	273	274	275	276	277	278	279	280	281	282	283	284	285	286	287	288	289	290	291	292	293	294	295	296	297	298	299	300	301	302	303	304	305	306	307	308	309	310	311	312	313	314	315	316	317	318	319	320	321	322	323	324	325	326	327	328	329	330	331	332	333	334	335	336	337	338	339	340	341	342	343	344	345	346	347	348	349	350	351	352	353	354	355	356	357	358	359	360	361	362	363	364	365	366	367	368	369	370	371	372	373	374	375	376	377	378	379	380	381	382	383	384	385	386	387	388	389	390	391	392	393	394	395	396	397	398	399	400	401	402	403	404	405	406	407	408	409	410	411	412	413	414	415	416	417	418	419	420	421	422	423	424	425	426	427	428	429	430	431	432	433	434	435	436	437	438	439	440	441	442	443	444	445	446	447	448	449	450	451	452	453	454	455	456	457	458	459	460	461	462	463	464	465	466	467	468	469	470	471	472	473	474	475	476	477	478	479	480	481	482	483	</DataArray>
<DataArray type="Float32" Name="top" format="ascii">1	1	1	1	1	1	1	1	1	1	1	1	1	1	1	1	1	1	1	1	1	1	1	1	1	1	1	1	1	1	1	1	1	1	1	1	1	1	1	1	1	1	1	1	1	1	1	1	1	1	1	1	1	1	1	1	1	1	1	1	1	1	1	1	1	1	1	1	1	1	1	1	1	1	1	1	1	1	1	1	1	1	1	1	1	1	1	1	1	1	1	1	1	1	1	1	1	1	1	1	1	1	1	1	1	1	1	1	1	1	1	1	1	1	1	1	1	1	1	1	1	1	1	1	1	1	1	1	1	1	1	1	1	1	1	1	1	1	1	1	1	1	1	1	1	1	1	1	1	1	1	1	1	1	1	1	1	1	1	1	1	1	1	1	1	1	1	1	1	1	1	1	1	1	1	1	1	1	1	1	1	1	1	1	1	1	1	1	1	1	1	1	1	1	1	1	1	1	1	1	1	1	1	1	1	1	1	1	1	1	1	1	1	1	1	1	1	1	1	1	1	1	1	1	1	1	1	1	1	1	1	1	1	1	1	1	1	1	1	1	1	1	1	1	1	1	1	1	1	1	1	1	1	1	1	1	1	1	1	1	1	1	1	1	1	1	1	1	1	1	1	1	1	1	1	1	1	1	1	1	1	1	1	1	1	1	1	1	1	1	1	1	1	1	1	1	1	1	1	1	1	1	1	1	1	1	1	1	1	1	1	1	1	1	1	1	1	1	1	1	1	1	1	1	1	1	1	1	1	1	1	1	1	1	1	1	1	1	1	1	1	1	1	1	1	1	1	1	1	1	1	1	1	1	1	1	1	1	1	1	1	1	1	1	1	1	1	1	1	1	1	1	1	1	1	1	1	1	1	1	1	1	1	1	1	1	1	1	1	1	1	1	1	1	1	1	1	1	1	1	1	1	1	1	1	1	1	1	1	1	1	1	1	1	1	1	1	1	1	1	1	1	1	1	1	1	1	1	1	1	1	1	1	1	1	1	1	1	1	1	1	1	1	1	1	1	1	1	1	1	1	1	1	1	1	1	1	1	1	1	1	1	1	1	1	1	1	1	1	1	1	1	1	1	1	1	1	1	1	1	1	1	1	1	</DataArray>
<DataArray type="Float32" Name="bottom" format="ascii">0	0	0	0	0	0	0	0	0	0	0	0	0	0	0	0	0	0	0	0	0	0	0	0	0	0	0	0	0	0	0	0	0	0	0	0	0	0	0	0	0	0	0	0	0	0	0	0	0	0	0	0	0	0	0	0	0	0	0	0	0	0	0	0	0	0	0	0	0	0	0	0	0	0	0	0	0	0	0	0	0	0	0	0	0	0	0	0	0	0	0	0	0	0	0	0	0	0	0	0	0	0	0	0	0	0	0	0	0	0	0	0	0	0	0	0	0	0	0	0	0	0	0	0	0	0	0	0	0	0	0	0	0	0	0	0	0	0	0	0	0	0	0	0	0	0	0	0	0	0	0	0	0	0	0	0	0	0	0	0	0	0	0	0	0	0	0	0	0	0	0	0	0	0	0	0	0	0	0	0	0	0	0	0	0	0	0	0	0	0	0	0	0	0	0	0	0	0	0	0	0	0	0	0	0	0	0	0	0	0	0	0	0	0	0	0	0	0	0	0	0	0	0	0	0	0	0	0	0	0	0	0	0	0	0	0	0	0	0	0	0	0	0	0	0	0	0	0	0	0	0	0	0	0	0	0	0	0	0	0	0	0	0	0	0	0	0	0	0	0	0	0	0	0	0	0	0	0	0	0	0	0	0	0	0	0	0	0	0	0	0	0	0	0	0	0	0	0	0	0	0	0	0	0	0	0	0	0	0	0	0	0	0	0	0	0	0	0	0	0	0	0	0	0	0	0	0	0	0	0	0	0	0	0	0	0	0	0	0	0	0	0	0	0	0	0	0	0	0	0	0	0	0	0	0	0	0	0	0	0	0	0	0	0	0	0	0	0	0	0	0	0	0	0	0	0	0	0	0	0	0	0	0	0	0	0	0	0	0	0	0	0	0	0	0	0	0	0	0	0	0	0	0	0	0	0	0	0	0	0	0	0	0	0	0	0	0	0	0	0	0	0	0	0	0	0	0	0	0	0	0	0	0	0	0	0	0	0	0	0	0	0	0	0	0	0	0	0	0	0	0	0	0	0	0	0	0	0	0	0	0	0	0	0	0	0	0	0	0	0	0	0	0	0	0	0	0	0	0	0	0	0	0	0	</DataArray>
<DataArray type="Float32" Name="delr" format="ascii">2272.73	2272.73	2272.73	2272.73	2272.73	2272.73	2272.73	2272.73	2272.73	2272.73	2272.73	2272.73	2272.73	2272.73	2272.73	2272.73	2272.73	2272.73	2272.73	2272.73	2272.73	2272.73	2272.73	2272.73	2272.73	2272.73	2272.73	2272.73	2272.73	2272.73	2272.73	2272.73	2272.73	2272.73	2272.73	2272.73	2272.73	2272.73	2272.73	2272.73	2272.73	2272.73	2272.73	2272.73	2272.73	2272.73	2272.73	2272.73	2272.73	2272.73	2272.73	2272.73	2272.73	2272.73	2272.73	2272.73	2272.73	2272.73	2272.73	2272.73	2272.73	2272.73	2272.73	2272.73	2272.73	2272.73	2272.73	2272.73	2272.73	2272.73	2272.73	2272.73	2272.73	2272.73	2272.73	2272.73	2272.73	2272.73	2272.73	2272.73	2272.73	2272.73	2272.73	2272.73	2272.73	2272.73	2272.73	2272.73	2272.73	2272.73	2272.73	2272.73	2272.73	2272.73	2272.73	2272.73	2272.73	2272.73	2272.73	2272.73	2272.73	2272.73	2272.73	2272.73	2272.73	2272.73	2272.73	2272.73	2272.73	2272.73	2272.73	2272.73	2272.73	2272.73	2272.73	2272.73	2272.73	2272.73	2272.73	2272.73	2272.73	2272.73	2272.73	2272.73	2272.73	2272.73	2272.73	2272.73	2272.73	2272.73	2272.73	2272.73	2272.73	2272.73	2272.73	2272.73	2272.73	2272.73	2272.73	2272.73	2272.73	2272.73	2272.73	2272.73	2272.73	2272.73	2272.73	2272.73	2272.73	2272.73	2272.73	2272.73	2272.73	2272.73	2272.73	2272.73	2272.73	2272.73	2272.73	2272.73	2272.73	2272.73	2272.73	2272.73	2272.73	2272.73	2272.73	2272.73	2272.73	2272.73	2272.73	2272.73	2272.73	2272.73	2272.73	2272.73	2272.73	2272.73	2272.73	2272.73	2272.73	2272.73	2272.73	2272.73	2272.73	2272.73	2272.73	2272.73	2272.73	2272.73	2272.73	2272.73	2272.73	2272.73	2272.73	2272.73	2272.73	2272.73	2272.73	2272.73	2272.73	2272.73	2272.73	2272.73	2272.73	2272.73	2272.73	2272.73	2272.73	2272.73	2272.73	2272.73	2272.73	2272.73	2272.73	2272.73	2272.73	2272.73	2272.73	2272.73	2272.73	2272.73	2272.73	2272.73	2272.73	2272.73	2272.73	2272.73	2272.73	2272.73	2272.73	2272.73	2272.73	2272.73	2272.73	2272.73	2272.73	2272.73	2272.73	2272.73	2272.73	2272.73	2272.73	2272.73	2272.73	2272.73	2272.73	2272.73	2272.73	2272.73	2272.73	2272.73	2272.73	2272.73	2272.73	2272.73	2272.73	2272.73	2272.73	2272.73	2272.73	2272.73	2272.73	2272.73	2272.73	2272.73	2272.73	2272.73	2272.73	2272.73	2272.73	2272.73	2272.73	2272.73	2272.73	2272.73	2272.73	2272.73	2272.73	2272.73	2272.73	2272.73	2272.73	2272.73	2272.73	2272.73	2272.73	2272.73	2272.73	2272.73	2272.73	2272.73	2272.73	2272.73	2272.73	2272.73	2272.73	2272.73	2272.73	2272.73	2272.73	2272.73	2272.73	2272.73	2272.73	2272.73	2272.73	2272.73	2272.73	2272.73	2272.73	2272.73	2272.73	2272.73	2272.73	2272.73	2272.73	2272.73	2272.73	2272.73	2272.73	2272.73	2272.73	2272.73	2272.73	2272.73	2272.73	2272.73	2272.73	2272.73	2272.73	2272.73	2272.73	2272.73	2272.73	2272.73	2272.73	2272.73	2272.73	2272.73	2272.73	2272.73	2272.73	2272.73	2272.73	2272.73	2272.73	2272.73	2272.73	2272.73	2272.73	2272.73	2272.73	2272.73	2272.73	2272.73	2272.73	2272.73	2272.73	2272.73	2272.73	2272.73	2272.73	2272.73	2272.73	2272.73	2272.73	2272.73	2272.73	2272.73	2272.73	2272.73	2272.73	2272.73	2272.73	2272.73	2272.73	2272.73	2272.73	2272.73	2272.73	2272.73	2272.73	2272.73	2272.73	2272.73	2272.73	2272.73	2272.73	2272.73	2272.73	2272.73	2272.73	2272.73	2272.73	2272.73	2272.73	2272.73	2272.73	2272.73	2272.73	2272.73	2272.73	2272.73	2272.73	2272.73	2272.73	2272.73	2272.73	2272.73	2272.73	2272.73	2272.73	2272.73	2272.73	2272.73	2272.73	2272.73	2272.73	2272.73	2272.73	2272.73	2272.73	2272.73	2272.73	2272.73	2272.73	2272.73	2272.73	2272.73	2272.73	2272.73	2272.73	2272.73	2272.73	2272.73	2272.73	2272.73	2272.73	2272.73	2272.73	2272.73	2272.73	2272.73	2272.73	2272.73	2272.73	2272.73	2272.73	2272.73	2272.73	2272.73	2272.73	2272.73	2272.73	2272.73	2272.73	2272.73	2272.73	2272.73	2272.73	2272.73	2272.73	2272.73	2272.73	2272.73	2272.73	2272.73	2272.73	2272.73	2272.73	2272.73	2272.73	2272.73	2272.73	2272.73	2272.73	2272.73	2272.73	2272.73	2272.73	2272.73	2272.73	2272.73	</DataArray>
<DataArray type="Float32" Name="delc" format="ascii">2272.73	2272.73	2272.73	2272.73	2272.73	2272.73	2272.73	2272.73	2272.73	2272.73	2272.73	2272.73	2272.73	2272.73	2272.73	2272.73	2272.73	2272.73	2272.73	2272.73	2272.73	2272.73	2272.73	2272.73	2272.73	2272.73	2272.73	2272.73	2272.73	2272.73	2272.73	2272.73	2272.73	2272.73	2272.73	2272.73	2272.73	2272.73	2272.73	2272.73	2272.73	2272.73	2272.73	2272.73	2272.73	2272.73	2272.73	2272.73	2272.73	2272.73	2272.73	2272.73	2272.73	2272.73	2272.73	2272.73	2272.73	2272.73	2272.73	2272.73	2272.73	2272.73	2272.73	2272.73	2272.73	2272.73	2272.73	2272.73	2272.73	2272.73	2272.73	2272.73	2272.73	2272.73	2272.73	2272.73	2272.73	2272.73	2272.73	2272.73	2272.73	2272.73	2272.73	2272.73	2272.73	2272.73	2272.73	2272.73	2272.73	2272.73	2272.73	2272.73	2272.73	2272.73	2272.73	2272.73	2272.73	2272.73	2272.73	2272.73	2272.73	2272.73	2272.73	2272.73	2272.73	2272.73	2272.73	2272.73	2272.73	2272.73	2272.73	2272.73	2272.73	2272.73	2272.73	2272.73	2272.73	2272.73	2272.73	2272.73	2272.73	2272.73	2272.73	2272.73	2272.73	2272.73	2272.73	2272.73	2272.73	2272.73	2272.73	2272.73	2272.73	2272.73	2272.73	2272.73	2272.73	2272.73	2272.73	2272.73	2272.73	2272.73	2272.73	2272.73	2272.73	2272.73	2272.73	2272.73	2272.73	2272.73	2272.73	2272.73	2272.73	2272.73	2272.73	2272.73	2272.73	2272.73	2272.73	2272.73	2272.73	2272.73	2272.73	2272.73	2272.73	2272.73	2272.73	2272.73	2272.73	2272.73	2272.73	2272.73	2272.73	2272.73	2272.73	2272.73	2272.73	2272.73	2272.73	2272.73	2272.73	2272.73	2272.73	2272.73	2272.73	2272.73	2272.73	2272.73	2272.73	2272.73	2272.73	2272.73	2272.73	2272.73	2272.73	2272.73	2272.73	2272.73	2272.73	2272.73	2272.73	2272.73	2272.73	2272.73	2272.73	2272.73	2272.73	2272.73	2272.73	2272.73	2272.73	2272.73	2272.73	2272.73	2272.73	2272.73	2272.73	2272.73	2272.73	2272.73	2272.73	2272.73	2272.73	2272.73	2272.73	2272.73	2272.73	2272.73	2272.73	2272.73	2272.73	2272.73	2272.73	2272.73	2272.73	2272.73	2272.73	2272.73	2272.73	2272.73	2272.73	2272.73	2272.73	2272.73	2272.73	2272.73	2272.73	2272.73	2272.73	2272.73	2272.73	2272.73	2272.73	2272.73	2272.73	2272.73	2272.73	2272.73	2272.73	2272.73	2272.73	2272.73	2272.73	2272.73	2272.73	2272.73	2272.73	2272.73	2272.73	2272.73	2272.73	2272.73	2272.73	2272.73	2272.73	2272.73	2272.73	2272.73	2272.73	2272.73	2272.73	2272.73	2272.73	2272.73	2272.73	2272.73	2272.73	2272.73	2272.73	2272.73	2272.73	2272.73	2272.73	2272.73	2272.73	2272.73	2272.73	2272.73	2272.73	2272.73	2272.73	2272.73	2272.73	2272.73	2272.73	2272.73	2272.73	2272.73	2272.73	2272.73	2272.73	2272.73	2272.73	2272.73	2272.73	2272.73	2272.73	2272.73	2272.73	2272.73	2272.73	2272.73	2272.73	2272.73	2272.73	2272.73	2272.73	2272.73	2272.73	2272.73	2272.73	2272.73	2272.73	2272.73	2272.73	2272.73	2272.73	2272.73	2272.73	2272.73	2272.73	2272.73	2272.73	2272.73	2272.73	2272.73	2272.73	2272.73	2272.73	2272.73	2272.73	2272.73	2272.73	2272.73	2272.73	2272.73	2272.73	2272.73	2272.73	2272.73	2272.73	2272.73	2272.73	2272.73	2272.73	2272.73	2272.73	2272.73	2272.73	2272.73	2272.73	2272.73	2272.73	2272.73	2272.73	2272.73	2272.73	2272.73	2272.73	2272.73	2272.73	2272.73	2272.73	2272.73	2272.73	2272.73	2272.73	2272.73	2272.73	2272.73	2272.73	2272.73	2272.73	2272.73	2272.73	2272.73	2272.73	2272.73	2272.73	2272.73	2272.73	2272.73	2272.73	2272.73	2272.73	2272.73	2272.73	2272.73	2272.73	2272.73	2272.73	2272.73	2272.73	2272.73	2272.73	2272.73	2272.73	2272.73	2272.73	2272.73	2272.73	2272.73	2272.73	2272.73	2272.73	2272.73	2272.73	2272.73	2272.73	2272.73	2272.73	2272.73	2272.73	2272.73	2272.73	2272.73	2272.73	2272.73	2272.73	2272.73	2272.73	2272.73	2272.73	2272.73	2272.73	2272.73	2272.73	2272.73	2272.73	2272.73	2272.73	2272.73	2272.73	2272.73	2272.73	2272.73	2272.73	2272.73	2272.73	2272.73	2272.73	2272.73	2272.73	2272.73	2272.73	2272.73	2272.73	2272.73	2272.73	2272.73	2272.73	2272.73	2272.73	2272.73	2272.73	2272.73	2272.73	2272.73	2272.73	2272.73	2272.73	2272.73	2272.73	2272.73	</DataArray>
</CellData>
</Piece>
</UnstructuredGrid>
</VTKFile>
